 Entering Gaussian System, Link 0=g09
 Initial command:
 /software/apps/gaussian/g09/A.02/g09/l1.exe /scratch/local/Gau-21354.inp -scrdir=/scratch/local/
 Default is to use a total of   8 processors:
                                8 via shared-memory
                                1 via Linda
 Entering Link 1 = /software/apps/gaussian/g09/A.02/g09/l1.exe PID=     21355.
  
 Copyright (c) 1988,1990,1992,1993,1995,1998,2003,2009, Gaussian, Inc.
                  All Rights Reserved.
  
 This is part of the Gaussian(R) 09 program.  It is based on
 the Gaussian(R) 03 system (copyright 2003, Gaussian, Inc.),
 the Gaussian(R) 98 system (copyright 1998, Gaussian, Inc.),
 the Gaussian(R) 94 system (copyright 1995, Gaussian, Inc.),
 the Gaussian 92(TM) system (copyright 1992, Gaussian, Inc.),
 the Gaussian 90(TM) system (copyright 1990, Gaussian, Inc.),
 the Gaussian 88(TM) system (copyright 1988, Gaussian, Inc.),
 the Gaussian 86(TM) system (copyright 1986, Carnegie Mellon
 University), and the Gaussian 82(TM) system (copyright 1983,
 Carnegie Mellon University). Gaussian is a federally registered
 trademark of Gaussian, Inc.
  
 This software contains proprietary and confidential information,
 including trade secrets, belonging to Gaussian, Inc.
  
 This software is provided under written license and may be
 used, copied, transmitted, or stored only in accord with that
 written license.
  
 The following legend is applicable only to US Government
 contracts under FAR:
  
                    RESTRICTED RIGHTS LEGEND
  
 Use, reproduction and disclosure by the US Government is
 subject to restrictions as set forth in subparagraphs (a)
 and (c) of the Commercial Computer Software - Restricted
 Rights clause in FAR 52.227-19.
  
 Gaussian, Inc.
 340 Quinnipiac St., Bldg. 40, Wallingford CT 06492
  
  
 ---------------------------------------------------------------
 Warning -- This program may not be used in any manner that
 competes with the business of Gaussian, Inc. or will provide
 assistance to any competitor of Gaussian, Inc.  The licensee
 of this program is prohibited from giving any competitor of
 Gaussian, Inc. access to this program.  By using this program,
 the user acknowledges that Gaussian, Inc. is engaged in the
 business of creating and licensing software in the field of
 computational chemistry and represents and warrants to the
 licensee that it is not a competitor of Gaussian, Inc. and that
 it will not use this program in any manner prohibited above.
 ---------------------------------------------------------------
  

 Cite this work as:
 Gaussian 09, Revision A.02,
 M. J. Frisch, G. W. Trucks, H. B. Schlegel, G. E. Scuseria, 
 M. A. Robb, J. R. Cheeseman, G. Scalmani, V. Barone, B. Mennucci, 
 G. A. Petersson, H. Nakatsuji, M. Caricato, X. Li, H. P. Hratchian, 
 A. F. Izmaylov, J. Bloino, G. Zheng, J. L. Sonnenberg, M. Hada, 
 M. Ehara, K. Toyota, R. Fukuda, J. Hasegawa, M. Ishida, T. Nakajima, 
 Y. Honda, O. Kitao, H. Nakai, T. Vreven, J. A. Montgomery, Jr., 
 J. E. Peralta, F. Ogliaro, M. Bearpark, J. J. Heyd, E. Brothers, 
 K. N. Kudin, V. N. Staroverov, R. Kobayashi, J. Normand, 
 K. Raghavachari, A. Rendell, J. C. Burant, S. S. Iyengar, J. Tomasi, 
 M. Cossi, N. Rega, J. M. Millam, M. Klene, J. E. Knox, J. B. Cross, 
 V. Bakken, C. Adamo, J. Jaramillo, R. Gomperts, R. E. Stratmann, 
 O. Yazyev, A. J. Austin, R. Cammi, C. Pomelli, J. W. Ochterski, 
 R. L. Martin, K. Morokuma, V. G. Zakrzewski, G. A. Voth, 
 P. Salvador, J. J. Dannenberg, S. Dapprich, A. D. Daniels, 
 O. Farkas, J. B. Foresman, J. V. Ortiz, J. Cioslowski, 
 and D. J. Fox, Gaussian, Inc., Wallingford CT, 2009.
 
 ******************************************
 Gaussian 09:  EM64L-G09RevA.02 11-Jun-2009
                23-Mar-2012 
 ******************************************
 %Mem=500MB
 %NProcShared=4
 Will use up to    4 processors via shared memory.
 %NProcLinda=8
 Will use up to    8 processors via Linda.
 Default route:  MaxDisk=190GB
 ----------------------------------------------------------
 #B3LYP/6-31++G(d,p) Counterpoise=2 Charge SCF=Tight NoSymm
 ----------------------------------------------------------
 1/18=10,28=-2,38=1,62=2,125=101/1;
 2/12=2,15=1,17=6,18=5,40=1/2;
 1/18=10,28=-2,38=1,53=5172,62=2/22;
 3/5=1,6=6,7=1111,11=2,16=1,25=1,30=1,74=-5/1,2,3;
 4//1;
 5/5=2,32=2,38=5/2;
 6/7=2,8=2,9=2,10=2,28=1/1;
 1/18=10,28=-2,53=4052,62=2,63=1/22;
 3/5=7,6=11,7=1111,11=2,16=1,25=1,30=1,74=-5,82=7/1,2,3;
 4//1;
 5/5=2,32=2,38=5/2;
 6/7=2,8=2,9=2,10=2,28=1/1;
 1/18=10,28=-2,53=3042,62=2,63=2/22;
 3/5=7,6=11,7=1111,11=2,16=1,25=1,30=1,74=-5,82=7/1,2,3;
 4//1;
 5/5=2,32=2,38=5/2;
 6/7=2,8=2,9=2,10=2,28=1/1;
 1/18=10,28=-2,53=2032,62=2,63=3/22;
 3/5=7,6=11,7=1111,11=2,16=1,25=1,30=1,74=-5,82=7/1,2,3;
 4//1;
 5/5=2,32=2,38=5/2;
 6/7=2,8=2,9=2,10=2,28=1/1;
 1/18=10,28=-2,53=1022,62=2,63=4/22;
 3/5=7,6=11,7=1111,11=2,16=1,25=1,30=1,74=-5,82=7/1,2,3;
 4//1;
 5/5=2,32=2,38=5/2;
 6/7=2,8=2,9=2,10=2,28=1/1;
 1/18=10,28=-2,53=5014,62=2,63=5/22;
 99/5=1,9=1/99;
 -----------------------------------------
 OH- in H2O,std. LJ params. for H2O, MC/QM
 -----------------------------------------
 Symbolic Z-matrix:
 Charge = -1 Multiplicity = 1 in supermolecule
 Charge =  0 Multiplicity = 1 in fragment  1.
 Charge = -1 Multiplicity = 1 in fragment  2.
 O                     0.        0.        0.         
 H                    -0.83661  -0.35589  -0.31769    
 H1                   -2.94477  -0.80525   0.12422    
 H2                   -3.28819  -0.85223  -1.19123    
 O7                   -2.65078  -1.13003  -0.47852    
 H1                    0.10736  -1.75243   0.59329    
 H2                    0.93198  -3.05813   1.07842    
 O20                   0.06343  -2.75377   0.81357    
 H1                   -2.79865  -0.52283   2.66516    
 H2                   -3.47997  -1.87842   2.26169    
 O26                  -3.72921  -0.99331   2.61518    
 H1                   -2.92066   1.77081   1.33317    
 H2                   -3.54422   2.56089   0.2864     
 O27                  -3.78161   1.97959   1.01233    
 H1                   -2.58306  -2.75008   0.17349    
 H2                   -2.07345  -4.17289   0.72711    
 O34                  -2.8506   -3.55594   0.652      
 H1                   -0.6753    0.16174   1.49356    
 H2                   -0.3302    0.07251   3.04082    
 O51                  -1.06967   0.3754    2.4241     
 H1                   -3.09748  -0.04087  -3.09085    
 H2                   -4.7411    0.03366  -2.74436    
 O58                  -3.90579  -0.50714  -2.746      
 H1                   -0.16076   0.97916  -1.13566    
 H2                    0.23039   2.35014  -1.85896    
 O61                  -0.2455    1.58446  -1.99235    
 
 Background charge distribution read from input stream:
 Point Charges:
 XYZ=   -6.6643    1.2688   -2.3571 Q=    0.4100 A=    0.0000 R=    0.0000 C=    0.0000
 XYZ=   -6.6126    0.8629   -3.9670 Q=    0.4100 A=    0.0000 R=    0.0000 C=    0.0000
 XYZ=   -6.1884    1.1547   -3.1814 Q=   -0.8200 A=    0.0000 R=    0.0000 C=    0.0000
 XYZ=   -1.2811    1.2669   -3.1355 Q=    0.4100 A=    0.0000 R=    0.0000 C=    0.0000
 XYZ=   -2.3255    1.8232   -4.0743 Q=    0.4100 A=    0.0000 R=    0.0000 C=    0.0000
 XYZ=   -1.8892    0.9577   -3.8620 Q=   -0.8200 A=    0.0000 R=    0.0000 C=    0.0000
 XYZ=   -2.3334    3.7523   -1.0778 Q=    0.4100 A=    0.0000 R=    0.0000 C=    0.0000
 XYZ=   -3.8596    4.3755   -1.1313 Q=    0.4100 A=    0.0000 R=    0.0000 C=    0.0000
 XYZ=   -3.1692    3.8774   -1.6668 Q=   -0.8200 A=    0.0000 R=    0.0000 C=    0.0000
 XYZ=    2.2108   -3.3149   -2.3418 Q=    0.4100 A=    0.0000 R=    0.0000 C=    0.0000
 XYZ=    1.2364   -3.2867   -3.5100 Q=    0.4100 A=    0.0000 R=    0.0000 C=    0.0000
 XYZ=    2.0383   -2.9064   -3.2311 Q=   -0.8200 A=    0.0000 R=    0.0000 C=    0.0000
 XYZ=   -3.3225   -4.0020   -4.1294 Q=    0.4100 A=    0.0000 R=    0.0000 C=    0.0000
 XYZ=   -3.1284   -5.4652   -3.5001 Q=    0.4100 A=    0.0000 R=    0.0000 C=    0.0000
 XYZ=   -3.8030   -4.7877   -3.7816 Q=   -0.8200 A=    0.0000 R=    0.0000 C=    0.0000
 XYZ=   -1.0441   -3.1939   -3.5654 Q=    0.4100 A=    0.0000 R=    0.0000 C=    0.0000
 XYZ=   -1.3401   -3.0981   -5.1034 Q=    0.4100 A=    0.0000 R=    0.0000 C=    0.0000
 XYZ=   -1.7345   -2.9413   -4.2132 Q=   -0.8200 A=    0.0000 R=    0.0000 C=    0.0000
 XYZ=   -0.5647    3.7191    0.7375 Q=    0.4100 A=    0.0000 R=    0.0000 C=    0.0000
 XYZ=   -0.7634    5.0091    0.0766 Q=    0.4100 A=    0.0000 R=    0.0000 C=    0.0000
 XYZ=   -0.6367    4.0720   -0.1753 Q=   -0.8200 A=    0.0000 R=    0.0000 C=    0.0000
 XYZ=    0.6140   -1.3862    4.5669 Q=    0.4100 A=    0.0000 R=    0.0000 C=    0.0000
 XYZ=    0.3959   -0.0007    5.4122 Q=    0.4100 A=    0.0000 R=    0.0000 C=    0.0000
 XYZ=    0.0803   -0.5800    4.6525 Q=   -0.8200 A=    0.0000 R=    0.0000 C=    0.0000
 XYZ=    1.8830   -5.1532   -0.2111 Q=    0.4100 A=    0.0000 R=    0.0000 C=    0.0000
 XYZ=    2.3715   -5.2929    1.2937 Q=    0.4100 A=    0.0000 R=    0.0000 C=    0.0000
 XYZ=    1.6009   -5.3081    0.7195 Q=   -0.8200 A=    0.0000 R=    0.0000 C=    0.0000
 XYZ=   -4.3123   -4.0279    2.4045 Q=    0.4100 A=    0.0000 R=    0.0000 C=    0.0000
 XYZ=   -5.7415   -4.2964    3.1540 Q=    0.4100 A=    0.0000 R=    0.0000 C=    0.0000
 XYZ=   -4.7871   -4.3855    3.2683 Q=   -0.8200 A=    0.0000 R=    0.0000 C=    0.0000
 XYZ=   -4.0007   -4.3292   -0.4388 Q=    0.4100 A=    0.0000 R=    0.0000 C=    0.0000
 XYZ=   -4.2318   -4.5842   -2.0463 Q=    0.4100 A=    0.0000 R=    0.0000 C=    0.0000
 XYZ=   -4.5853   -4.7168   -1.1468 Q=   -0.8200 A=    0.0000 R=    0.0000 C=    0.0000
 XYZ=    2.9758   -1.7461   -0.8991 Q=    0.4100 A=    0.0000 R=    0.0000 C=    0.0000
 XYZ=    4.1987   -2.7674   -1.0180 Q=    0.4100 A=    0.0000 R=    0.0000 C=    0.0000
 XYZ=    3.3056   -2.6235   -0.5789 Q=   -0.8200 A=    0.0000 R=    0.0000 C=    0.0000
 XYZ=    1.3817    0.9564    1.0848 Q=    0.4100 A=    0.0000 R=    0.0000 C=    0.0000
 XYZ=    2.0510    2.2652    0.6408 Q=    0.4100 A=    0.0000 R=    0.0000 C=    0.0000
 XYZ=    2.1340    1.5146    1.2624 Q=   -0.8200 A=    0.0000 R=    0.0000 C=    0.0000
 XYZ=   -1.2279    1.9608    2.5655 Q=    0.4100 A=    0.0000 R=    0.0000 C=    0.0000
 XYZ=   -2.0597    3.2709    3.0047 Q=    0.4100 A=    0.0000 R=    0.0000 C=    0.0000
 XYZ=   -1.2621    2.9735    2.4512 Q=   -0.8200 A=    0.0000 R=    0.0000 C=    0.0000
 XYZ=   -0.1906   -5.3388    0.8809 Q=    0.4100 A=    0.0000 R=    0.0000 C=    0.0000
 XYZ=   -0.9875   -5.7441    2.0622 Q=    0.4100 A=    0.0000 R=    0.0000 C=    0.0000
 XYZ=   -1.0742   -5.6962    1.0416 Q=   -0.8200 A=    0.0000 R=    0.0000 C=    0.0000
 XYZ=    1.7232    0.1666   -1.1790 Q=    0.4100 A=    0.0000 R=    0.0000 C=    0.0000
 XYZ=    2.3649    0.0495   -2.4947 Q=    0.4100 A=    0.0000 R=    0.0000 C=    0.0000
 XYZ=    2.6341    0.1304   -1.5911 Q=   -0.8200 A=    0.0000 R=    0.0000 C=    0.0000
 XYZ=   -5.0987    1.9422    2.1429 Q=    0.4100 A=    0.0000 R=    0.0000 C=    0.0000
 XYZ=   -4.7684    2.8861    3.4085 Q=    0.4100 A=    0.0000 R=    0.0000 C=    0.0000
 XYZ=   -5.5230    2.5023    2.8991 Q=   -0.8200 A=    0.0000 R=    0.0000 C=    0.0000
 XYZ=   -4.8500   -1.6780   -4.1589 Q=    0.4100 A=    0.0000 R=    0.0000 C=    0.0000
 XYZ=   -5.1178   -1.8279   -5.8044 Q=    0.4100 A=    0.0000 R=    0.0000 C=    0.0000
 XYZ=   -5.2896   -2.2637   -4.8569 Q=   -0.8200 A=    0.0000 R=    0.0000 C=    0.0000
 XYZ=   -0.3556   -3.3981   -1.1440 Q=    0.4100 A=    0.0000 R=    0.0000 C=    0.0000
 XYZ=   -0.9529   -4.5483   -1.9720 Q=    0.4100 A=    0.0000 R=    0.0000 C=    0.0000
 XYZ=   -0.1968   -3.9514   -2.0148 Q=   -0.8200 A=    0.0000 R=    0.0000 C=    0.0000
 Sum of input charges=            0.000000
              Moments=            1.215125            1.251090            0.896664
                          Input orientation:                          
 ---------------------------------------------------------------------
 Center     Atomic      Atomic             Coordinates (Angstroms)
 Number     Number       Type             X           Y           Z
 ---------------------------------------------------------------------
      1          8           0        0.000000    0.000000    0.000000
      2          1           0       -0.836605   -0.355890   -0.317687
      3          1           0       -2.944768   -0.805250    0.124217
      4          1           0       -3.288186   -0.852234   -1.191226
      5          8           0       -2.650783   -1.130027   -0.478524
      6          1           0        0.107363   -1.752434    0.593288
      7          1           0        0.931977   -3.058127    1.078425
      8          8           0        0.063430   -2.753774    0.813570
      9          1           0       -2.798653   -0.522827    2.665156
     10          1           0       -3.479974   -1.878422    2.261686
     11          8           0       -3.729214   -0.993309    2.615176
     12          1           0       -2.920662    1.770807    1.333171
     13          1           0       -3.544220    2.560893    0.286404
     14          8           0       -3.781610    1.979592    1.012335
     15          1           0       -2.583061   -2.750080    0.173490
     16          1           0       -2.073446   -4.172893    0.727113
     17          8           0       -2.850602   -3.555935    0.652003
     18          1           0       -0.675303    0.161736    1.493562
     19          1           0       -0.330196    0.072511    3.040824
     20          8           0       -1.069672    0.375400    2.424102
     21          1           0       -3.097480   -0.040872   -3.090851
     22          1           0       -4.741096    0.033661   -2.744358
     23          8           0       -3.905787   -0.507138   -2.745995
     24          1           0       -0.160755    0.979155   -1.135664
     25          1           0        0.230390    2.350141   -1.858957
     26          8           0       -0.245503    1.584459   -1.992354
 ---------------------------------------------------------------------
                    Distance matrix (angstroms):
                    1          2          3          4          5
     1  O    0.000000
     2  H    0.963063   0.000000
     3  H    3.055408   2.200353   0.000000
     4  H    3.599651   2.649467   1.360343   0.000000
     5  O    2.921061   1.978989   0.745120   0.995689   0.000000
     6  H    1.853252   1.916060   3.229967   3.940127   3.023829
     7  H    3.373977   3.518394   4.584225   5.275136   4.356355
     8  O    2.872140   2.799938   3.649823   4.343776   3.416579
     9  H    3.899854   3.574193   2.560758   3.901261   3.205196
    10  H    4.555646   3.994830   2.450901   3.607277   2.959122
    11  O    4.661850   4.168354   2.618320   3.834463   3.279129
    12  H    3.666520   3.404624   2.845737   3.658961   3.430730
    13  H    4.381974   4.025385   3.422947   3.728053   3.873788
    14  O    4.386819   3.987040   3.040461   3.621931   3.629209
    15  H    3.776936   3.003916   1.978793   2.441612   1.747650
    16  H    4.716027   4.146190   3.530397   4.022735   3.323539
    17  O    4.603880   3.903431   2.802444   3.301359   2.683850
    18  H    1.647094   1.890655   2.821460   3.881157   3.075759
    19  H    3.059558   3.423386   4.014106   5.245484   4.383724
    20  O    2.676078   2.847194   3.193648   4.415822   3.632005
    21  H    4.376004   3.591828   3.308211   2.074428   2.865318
    22  H    5.478195   4.613625   3.487017   2.303905   3.295085
    23  O    4.801338   3.916559   3.041471   1.708165   2.665418
    24  H    1.508085   1.705346   3.538662   3.624624   3.328772
    25  H    3.005323   3.291898   4.896029   4.804315   4.724227
    26  O    2.557393   2.630374   4.180504   3.979598   3.930075
                    6          7          8          9         10
     6  H    0.000000
     7  H    1.618697   0.000000
     8  O    1.026224   0.957681   0.000000
     9  H    3.774851   4.781533   4.073943   0.000000
    10  H    3.958334   4.717745   3.926703   1.569912   0.000000
    11  O    4.402684   5.324639   4.552930   1.043933   0.985140
    12  H    4.704210   6.182744   5.444871   2.655151   3.806815
    13  H    5.659773   7.227518   6.445055   3.965307   4.859360
    14  O    5.406268   6.899339   6.101524   3.155966   4.066465
    15  H    2.899984   3.642704   2.722798   3.348960   2.434092
    16  H    3.260745   3.224700   2.566634   4.195821   3.098037
    17  O    3.464913   3.838952   3.026739   3.640773   2.408576
    18  H    2.255461   3.622597   3.083555   2.519896   3.552244
    19  H    3.084204   3.904483   3.619874   2.566872   3.786066
    20  O    3.043841   4.196016   3.697224   1.963236   3.303884
    21  H    5.174296   6.536300   5.709264   5.783874   5.672085
    22  H    6.151225   7.507102   6.596371   5.774565   5.505176
    23  O    5.367210   6.673657   5.785548   5.523273   5.209473
    24  H    3.243877   4.732431   4.217171   4.864225   5.543009
    25  H    4.781188   6.194336   5.763699   6.156025   6.973324
    26  O    4.236144   5.689442   5.175801   5.714160   6.367904
                   11         12         13         14         15
    11  O    0.000000
    12  H    3.152401   0.000000
    13  H    4.253205   1.452164   0.000000
    14  O    3.377867   0.942209   0.959813   0.000000
    15  H    3.218966   4.679450   5.398427   4.950755   0.000000
    16  H    4.051679   6.034290   6.906611   6.391576   1.609535
    17  O    3.345603   5.370575   6.166875   5.624827   0.974656
    18  H    3.452321   2.767033   3.929869   3.631160   3.723010
    19  H    3.587544   3.537061   4.910074   4.434409   4.611293
    20  O    2.997172   2.561924   3.933131   3.452698   4.138143
    21  H    5.819361   4.783870   4.286561   4.624548   4.273214
    22  H    5.550061   4.791440   4.123704   4.338203   4.573857
    23  O    5.386065   4.774840   4.328855   4.508247   3.912005
    24  H    5.540155   3.786680   3.996499   4.327281   4.635585
    25  H    6.846531   4.522658   4.346800   4.947501   6.169165
    26  O    6.325382   4.272039   4.126463   4.657074   5.379896
                   16         17         18         19         20
    16  H    0.000000
    17  O    0.995113   0.000000
    18  H    4.618577   4.388761   0.000000
    19  H    5.139614   5.022403   1.587791   0.000000
    20  O    4.957248   4.665559   1.032998   1.009412   0.000000
    21  H    5.718312   5.140581   5.188915   6.728161   5.890670
    22  H    6.071455   5.290977   5.874269   7.275017   6.348946
    23  O    5.371937   4.685613   5.371896   6.827014   5.962577
    24  H    5.802751   5.567591   2.801029   4.277121   3.723249
    25  H    7.385485   7.118930   4.104727   5.432284   4.892275
    26  O    6.624498   6.340569   3.789522   5.256048   4.652544
                   21         22         23         24         25
    21  H    0.000000
    22  H    1.681394   0.000000
    23  O    0.994832   0.995092   0.000000
    24  H    3.672542   4.945845   4.339066   0.000000
    25  H    4.278928   5.555690   5.104786   1.598671   0.000000
    26  O    3.461527   4.814649   4.282573   1.052375   0.911338
                   26
    26  O    0.000000
 Symmetry turned off by external request.
 Stoichiometry    H17O9(1-)
 Framework group  C1[X(H17O9)]
 Deg. of freedom    72
 Full point group                 C1      NOp   1
 Rotational constants (GHZ):      0.6251622      0.5342274      0.5215613
 Standard basis: 6-31++G(d,p) (6D, 7F)
 Integral buffers will be    131072 words long.
 Raffenetti 2 integral format.
 Two-electron integral symmetry is turned off.
   273 basis functions,   424 primitive gaussians,   273 cartesian basis functions
    45 alpha electrons       45 beta electrons
       nuclear repulsion energy       557.4402987034 Hartrees.
 NAtoms=   26 NActive=   26 NUniq=   26 SFac= 7.50D-01 NAtFMM=   80 NAOKFM=F Big=F
 FoFCou: FMM=F IPFlag=           0 FMFlag=      100000 FMFlg1=           0
         NFxFlg=           0 DoJE=F BraDBF=T KetDBF=T FulRan=T
         Omega=  0.000000  0.000000  1.000000  0.000000  0.000000 ICntrl=    1100 IOpCl=  0
         NMat0=    1 NMatS0=    1 NMatT0=    0 NMatD0=    1 NMtDS0=    0 NMtDT0=    0
         I1Cent=    10001006 NGrid=          83.
 Symmetry not used in FoFCou.
 Self energy of the charges =        -5.8402918693 a.u.
 MM   energy of the charges =         0.0000000000 a.u.
 Nuclei-charges interaction =         3.0185400864 a.u.
 Nuclear repulsion after external point charges =      554.6185469205 Hartrees.
 One-electron integrals computed using PRISM.
 NBasis=   273 RedAO= T  NBF=   273
 NBsUse=   273 1.00D-06 NBFU=   273
 Harris functional with IExCor=  402 diagonalized for initial guess.
 ExpMin= 3.60D-02 ExpMax= 5.48D+03 ExpMxC= 8.25D+02 IAcc=3 IRadAn=         0 AccDes= 0.00D+00
 HarFok:  IExCor=  402 AccDes= 0.00D+00 IRadAn=         0 IDoV= 1
 ScaDFX=  1.000000  1.000000  1.000000  1.000000
 FoFCou: FMM=F IPFlag=           0 FMFlag=      100000 FMFlg1=           0
         NFxFlg=           0 DoJE=T BraDBF=F KetDBF=T FulRan=T
         Omega=  0.000000  0.000000  1.000000  0.000000  0.000000 ICntrl=     500 IOpCl=  0
         NMat0=    1 NMatS0=    1 NMatT0=    0 NMatD0=    1 NMtDS0=    0 NMtDT0=    0
         I1Cent=           4 NGrid=           0.
 Symmetry not used in FoFCou.
 Requested convergence on RMS density matrix=1.00D-08 within 128 cycles.
 Requested convergence on MAX density matrix=1.00D-06.
 Requested convergence on             energy=1.00D-06.
 No special actions if energy rises.
 SCF Done:  E(RB3LYP) =  -693.359758600     A.U. after   12 cycles
             Convg  =    0.4786D-08             -V/T =  2.0174

 **********************************************************************

            Population analysis using the SCF density.

 **********************************************************************

 Alpha  occ. eigenvalues --  -19.09369 -19.07448 -19.05320 -19.04682 -19.04034
 Alpha  occ. eigenvalues --  -19.03686 -19.03063 -19.01326 -18.98017  -0.97879
 Alpha  occ. eigenvalues --   -0.95601  -0.90968  -0.89007  -0.88547  -0.88245
 Alpha  occ. eigenvalues --   -0.87272  -0.86116  -0.80000  -0.46436  -0.45785
 Alpha  occ. eigenvalues --   -0.44007  -0.42026  -0.41465  -0.39963  -0.38878
 Alpha  occ. eigenvalues --   -0.37694  -0.34069  -0.32988  -0.30479  -0.29299
 Alpha  occ. eigenvalues --   -0.28630  -0.27730  -0.26798  -0.26286  -0.25550
 Alpha  occ. eigenvalues --   -0.25035  -0.23058  -0.21978  -0.21248  -0.20887
 Alpha  occ. eigenvalues --   -0.20120  -0.18315  -0.17949  -0.15413  -0.14750
 Alpha virt. eigenvalues --    0.06705   0.08448   0.09782   0.11037   0.11305
 Alpha virt. eigenvalues --    0.12544   0.14572   0.14923   0.15467   0.16649
 Alpha virt. eigenvalues --    0.17689   0.17861   0.18738   0.18995   0.20315
 Alpha virt. eigenvalues --    0.20887   0.22294   0.23392   0.23893   0.24603
 Alpha virt. eigenvalues --    0.26002   0.26441   0.27175   0.27497   0.27870
 Alpha virt. eigenvalues --    0.28650   0.29086   0.29665   0.29875   0.30108
 Alpha virt. eigenvalues --    0.31058   0.31595   0.31800   0.32421   0.32570
 Alpha virt. eigenvalues --    0.33139   0.33651   0.34395   0.34686   0.35861
 Alpha virt. eigenvalues --    0.36257   0.36540   0.37097   0.37220   0.37790
 Alpha virt. eigenvalues --    0.37912   0.38637   0.39209   0.39798   0.40557
 Alpha virt. eigenvalues --    0.41025   0.41718   0.42118   0.42295   0.42967
 Alpha virt. eigenvalues --    0.43761   0.44090   0.45613   0.46617   0.48434
 Alpha virt. eigenvalues --    0.48782   0.49862   0.50891   0.52019   0.53517
 Alpha virt. eigenvalues --    0.55125   0.55648   0.57935   0.62438   0.67329
 Alpha virt. eigenvalues --    1.03005   1.07006   1.08433   1.09433   1.10589
 Alpha virt. eigenvalues --    1.11399   1.13671   1.14536   1.17363   1.20260
 Alpha virt. eigenvalues --    1.20593   1.21858   1.23312   1.24336   1.24952
 Alpha virt. eigenvalues --    1.25438   1.26094   1.26582   1.27407   1.27543
 Alpha virt. eigenvalues --    1.28693   1.28908   1.29612   1.30869   1.31134
 Alpha virt. eigenvalues --    1.31686   1.32508   1.33292   1.33953   1.34215
 Alpha virt. eigenvalues --    1.35195   1.36268   1.36508   1.36689   1.37547
 Alpha virt. eigenvalues --    1.39152   1.39556   1.40494   1.41426   1.41870
 Alpha virt. eigenvalues --    1.45353   1.47366   1.49199   1.51287   1.52656
 Alpha virt. eigenvalues --    1.56051   1.56297   1.58947   1.59526   1.60980
 Alpha virt. eigenvalues --    1.61314   1.62644   1.64047   1.64738   1.65448
 Alpha virt. eigenvalues --    1.66403   1.67579   1.68265   1.68573   1.69631
 Alpha virt. eigenvalues --    1.70518   1.71396   1.73164   1.73611   1.74531
 Alpha virt. eigenvalues --    1.75127   1.76254   1.76512   1.79182   1.80433
 Alpha virt. eigenvalues --    1.80507   1.81569   1.84177   1.84383   1.86034
 Alpha virt. eigenvalues --    1.88261   1.92893   1.94995   1.96657   1.99400
 Alpha virt. eigenvalues --    2.03594   2.26207   2.29097   2.34813   2.35446
 Alpha virt. eigenvalues --    2.36695   2.37208   2.37550   2.37735   2.38807
 Alpha virt. eigenvalues --    2.40133   2.43497   2.46407   2.48197   2.51364
 Alpha virt. eigenvalues --    2.57457   2.58344   2.59594   2.60925   2.61839
 Alpha virt. eigenvalues --    2.63032   2.65565   2.66228   2.67658   2.69612
 Alpha virt. eigenvalues --    2.70246   2.71361   2.71934   2.72178   2.73175
 Alpha virt. eigenvalues --    2.75069   2.75627   2.77843   2.78884   2.80018
 Alpha virt. eigenvalues --    2.80203   2.80956   2.84276   2.84722   2.85733
 Alpha virt. eigenvalues --    2.89660   2.99561   3.02694   3.06008   3.07398
 Alpha virt. eigenvalues --    3.08703   3.09349   3.11329   3.12497   3.20366
 Alpha virt. eigenvalues --    3.22367   3.38242   3.45818   3.50200   3.53488
 Alpha virt. eigenvalues --    3.54805   3.56633   3.58071   3.61973   3.66156
 Alpha virt. eigenvalues --    3.71654   3.71890   3.75495   3.76431   3.78478
 Alpha virt. eigenvalues --    3.82173   3.83894   3.90360   4.18777   4.25665
 Alpha virt. eigenvalues --    4.27984   4.31218   4.34821   4.38134   4.40212
 Alpha virt. eigenvalues --    4.44217   4.55040   4.88450
          Condensed to atoms (all electrons):
              1          2          3          4          5          6
     1  O    8.924649   0.227962  -0.007580   0.001182  -0.014186   0.086418
     2  H    0.227962   0.451854   0.016048  -0.014531   0.044169  -0.026130
     3  H   -0.007580   0.016048   0.414381  -0.050775   0.246176  -0.010704
     4  H    0.001182  -0.014531  -0.050775   0.371813   0.228368   0.010174
     5  O   -0.014186   0.044169   0.246176   0.228368   8.423413  -0.005076
     6  H    0.086418  -0.026130  -0.010704   0.010174  -0.005076   0.366252
     7  H    0.003528   0.003635   0.000703  -0.000484  -0.000278  -0.017884
     8  O   -0.051542  -0.009760   0.003282  -0.001803  -0.004298   0.185648
     9  H   -0.001366  -0.001966  -0.004533   0.000182   0.001699  -0.000655
    10  H    0.000440   0.000229  -0.002573   0.001270   0.005605   0.001928
    11  O   -0.003723   0.006757   0.031136  -0.005214  -0.001671   0.000232
    12  H   -0.000359  -0.006210   0.003709   0.000809  -0.003959   0.002542
    13  H    0.000908   0.001101   0.002447  -0.002251   0.000388  -0.000357
    14  O   -0.001908   0.005142   0.014061  -0.006444  -0.001990  -0.001386
    15  H   -0.001222  -0.004882   0.008446  -0.026779   0.032194  -0.008618
    16  H   -0.000342  -0.000487   0.003072   0.001446  -0.001588   0.001935
    17  O   -0.001255  -0.005455  -0.012755   0.004459  -0.026650   0.001146
    18  H    0.098091   0.010618  -0.006172   0.000385   0.001791  -0.009180
    19  H    0.001622   0.004122   0.002343  -0.000663   0.000493  -0.003274
    20  O   -0.086387  -0.008746   0.001853  -0.000692   0.002932   0.002705
    21  H   -0.000623  -0.001988  -0.000887  -0.003566   0.002863   0.000119
    22  H    0.000163   0.000712   0.001052  -0.013751   0.003239  -0.000242
    23  O    0.000229  -0.003864  -0.033771   0.106678  -0.066224   0.001134
    24  H    0.074100  -0.023051   0.001661  -0.003064  -0.005350  -0.001644
    25  H    0.009387   0.007140  -0.000058   0.000553   0.000289  -0.000743
    26  O   -0.108902  -0.012573  -0.004026   0.001869  -0.000073   0.007238
              7          8          9         10         11         12
     1  O    0.003528  -0.051542  -0.001366   0.000440  -0.003723  -0.000359
     2  H    0.003635  -0.009760  -0.001966   0.000229   0.006757  -0.006210
     3  H    0.000703   0.003282  -0.004533  -0.002573   0.031136   0.003709
     4  H   -0.000484  -0.001803   0.000182   0.001270  -0.005214   0.000809
     5  O   -0.000278  -0.004298   0.001699   0.005605  -0.001671  -0.003959
     6  H   -0.017884   0.185648  -0.000655   0.001928   0.000232   0.002542
     7  H    0.385462   0.243928   0.000141  -0.000392  -0.000288  -0.000222
     8  O    0.243928   8.506764  -0.001295  -0.000380  -0.001851   0.000057
     9  H    0.000141  -0.001295   0.375403  -0.034565   0.270582  -0.002152
    10  H   -0.000392  -0.000380  -0.034565   0.394690   0.256512   0.002255
    11  O   -0.000288  -0.001851   0.270582   0.256512   8.214481  -0.007545
    12  H   -0.000222   0.000057  -0.002152   0.002255  -0.007545   0.366556
    13  H    0.000025   0.000009  -0.000251  -0.000431   0.002455  -0.024491
    14  O    0.000082   0.000018   0.001675  -0.001370  -0.004581   0.262399
    15  H    0.001825   0.009505   0.002269  -0.003292  -0.003938  -0.000639
    16  H   -0.000020  -0.003180  -0.000948  -0.000583   0.000561   0.000060
    17  O    0.001386  -0.015677   0.002203   0.015955  -0.004204  -0.000003
    18  H    0.001824  -0.005607   0.003817  -0.000228  -0.004209  -0.007451
    19  H    0.000090   0.001551  -0.002000  -0.000453  -0.001026   0.000319
    20  O   -0.000430  -0.000374   0.011412   0.001873  -0.027400   0.008062
    21  H    0.000026   0.000054   0.000052   0.000033  -0.000245  -0.000022
    22  H   -0.000001  -0.000015  -0.000018  -0.000097   0.000287   0.000012
    23  O   -0.000119  -0.000194  -0.000286   0.000934   0.000690   0.001442
    24  H   -0.000745   0.006651   0.000098  -0.000276  -0.001445   0.001134
    25  H    0.000040  -0.000244  -0.000029   0.000008   0.000149  -0.000280
    26  O   -0.000003  -0.001885  -0.000370   0.000124   0.000040   0.002512
             13         14         15         16         17         18
     1  O    0.000908  -0.001908  -0.001222  -0.000342  -0.001255   0.098091
     2  H    0.001101   0.005142  -0.004882  -0.000487  -0.005455   0.010618
     3  H    0.002447   0.014061   0.008446   0.003072  -0.012755  -0.006172
     4  H   -0.002251  -0.006444  -0.026779   0.001446   0.004459   0.000385
     5  O    0.000388  -0.001990   0.032194  -0.001588  -0.026650   0.001791
     6  H   -0.000357  -0.001386  -0.008618   0.001935   0.001146  -0.009180
     7  H    0.000025   0.000082   0.001825  -0.000020   0.001386   0.001824
     8  O    0.000009   0.000018   0.009505  -0.003180  -0.015677  -0.005607
     9  H   -0.000251   0.001675   0.002269  -0.000948   0.002203   0.003817
    10  H   -0.000431  -0.001370  -0.003292  -0.000583   0.015955  -0.000228
    11  O    0.002455  -0.004581  -0.003938   0.000561  -0.004204  -0.004209
    12  H   -0.024491   0.262399  -0.000639   0.000060  -0.000003  -0.007451
    13  H    0.387202   0.277166   0.000239  -0.000018   0.000003   0.000677
    14  O    0.277166   8.209467   0.000231  -0.000001   0.000024  -0.000053
    15  H    0.000239   0.000231   0.359480  -0.013103   0.221564   0.000754
    16  H   -0.000018  -0.000001  -0.013103   0.310633   0.258193  -0.000697
    17  O    0.000003   0.000024   0.221564   0.258193   8.441383  -0.000977
    18  H    0.000677  -0.000053   0.000754  -0.000697  -0.000977   0.355898
    19  H   -0.000138   0.000695  -0.000105   0.000290   0.000027  -0.011185
    20  O   -0.000513   0.001167   0.000820  -0.000128  -0.000876   0.136418
    21  H   -0.000037   0.000543   0.000927  -0.000057   0.000153   0.000152
    22  H    0.000034  -0.000080   0.001773  -0.000123  -0.000199   0.000031
    23  O   -0.000375  -0.000728  -0.011981   0.001025   0.000523   0.000255
    24  H    0.000243   0.000135   0.002470  -0.000113   0.000535  -0.003898
    25  H   -0.000135  -0.000160  -0.000272   0.000025   0.000003  -0.000744
    26  O   -0.000534  -0.000613  -0.000158  -0.000015  -0.000039  -0.000151
             19         20         21         22         23         24
     1  O    0.001622  -0.086387  -0.000623   0.000163   0.000229   0.074100
     2  H    0.004122  -0.008746  -0.001988   0.000712  -0.003864  -0.023051
     3  H    0.002343   0.001853  -0.000887   0.001052  -0.033771   0.001661
     4  H   -0.000663  -0.000692  -0.003566  -0.013751   0.106678  -0.003064
     5  O    0.000493   0.002932   0.002863   0.003239  -0.066224  -0.005350
     6  H   -0.003274   0.002705   0.000119  -0.000242   0.001134  -0.001644
     7  H    0.000090  -0.000430   0.000026  -0.000001  -0.000119  -0.000745
     8  O    0.001551  -0.000374   0.000054  -0.000015  -0.000194   0.006651
     9  H   -0.002000   0.011412   0.000052  -0.000018  -0.000286   0.000098
    10  H   -0.000453   0.001873   0.000033  -0.000097   0.000934  -0.000276
    11  O   -0.001026  -0.027400  -0.000245   0.000287   0.000690  -0.001445
    12  H    0.000319   0.008062  -0.000022   0.000012   0.001442   0.001134
    13  H   -0.000138  -0.000513  -0.000037   0.000034  -0.000375   0.000243
    14  O    0.000695   0.001167   0.000543  -0.000080  -0.000728   0.000135
    15  H   -0.000105   0.000820   0.000927   0.001773  -0.011981   0.002470
    16  H    0.000290  -0.000128  -0.000057  -0.000123   0.001025  -0.000113
    17  O    0.000027  -0.000876   0.000153  -0.000199   0.000523   0.000535
    18  H   -0.011185   0.136418   0.000152   0.000031   0.000255  -0.003898
    19  H    0.312597   0.245947  -0.000013   0.000014  -0.000038  -0.000330
    20  O    0.245947   8.675021  -0.000060   0.000034   0.000015   0.002720
    21  H   -0.000013  -0.000060   0.242748  -0.018341   0.289534   0.000645
    22  H    0.000014   0.000034  -0.018341   0.318228   0.277577   0.000108
    23  O   -0.000038   0.000015   0.289534   0.277577   8.280994  -0.000492
    24  H   -0.000330   0.002720   0.000645   0.000108  -0.000492   0.302845
    25  H    0.000127   0.000467   0.000045  -0.000054   0.000047  -0.024988
    26  O   -0.000047  -0.002183  -0.001784   0.000504   0.001119   0.209548
             25         26
     1  O    0.009387  -0.108902
     2  H    0.007140  -0.012573
     3  H   -0.000058  -0.004026
     4  H    0.000553   0.001869
     5  O    0.000289  -0.000073
     6  H   -0.000743   0.007238
     7  H    0.000040  -0.000003
     8  O   -0.000244  -0.001885
     9  H   -0.000029  -0.000370
    10  H    0.000008   0.000124
    11  O    0.000149   0.000040
    12  H   -0.000280   0.002512
    13  H   -0.000135  -0.000534
    14  O   -0.000160  -0.000613
    15  H   -0.000272  -0.000158
    16  H    0.000025  -0.000015
    17  O    0.000003  -0.000039
    18  H   -0.000744  -0.000151
    19  H    0.000127  -0.000047
    20  O    0.000467  -0.002183
    21  H    0.000045  -0.001784
    22  H   -0.000054   0.000504
    23  O    0.000047   0.001119
    24  H   -0.024988   0.209548
    25  H    0.393719   0.262323
    26  O    0.262323   8.543003
 Mulliken atomic charges:
              1
     1  O   -1.149284
     2  H    0.340151
     3  H    0.383466
     4  H    0.400829
     5  O   -0.862274
     6  H    0.418423
     7  H    0.378171
     8  O   -0.859364
     9  H    0.380902
    10  H    0.362784
    11  O   -0.716543
    12  H    0.401463
    13  H    0.356634
    14  O   -0.753492
    15  H    0.432492
    16  H    0.444164
    17  O   -0.879466
    18  H    0.439843
    19  H    0.449035
    20  O   -0.963658
    21  H    0.489730
    22  H    0.429153
    23  O   -0.844124
    24  H    0.462503
    25  H    0.353385
    26  O   -0.894923
 Sum of Mulliken atomic charges =  -1.00000
 Mulliken charges with hydrogens summed into heavy atoms:
              1
     1  O   -0.809133
     5  O   -0.077979
     8  O   -0.062771
    11  O    0.027143
    14  O    0.004606
    17  O   -0.002810
    20  O   -0.074780
    23  O    0.074759
    26  O   -0.079034
 Sum of Mulliken charges with hydrogens summed into heavy atoms =  -1.00000
          Condensed to fragments (all electrons):
     1      -0.077979
     2      -0.922021
 Electronic spatial extent (au):  <R**2>=           4263.1474
 Charge=             -1.0000 electrons
 Dipole moment (field-independent basis, Debye):
    X=              9.5667    Y=              3.8794    Z=             -3.1340  Tot=             10.7886
 Quadrupole moment (field-independent basis, Debye-Ang):
   XX=            -98.1930   YY=            -76.4615   ZZ=            -77.2147
   XY=            -19.7569   XZ=             33.8758   YZ=             -6.0502
 Traceless Quadrupole moment (field-independent basis, Debye-Ang):
   XX=            -14.2366   YY=              7.4949   ZZ=              6.7418
   XY=            -19.7569   XZ=             33.8758   YZ=             -6.0502
 Octapole moment (field-independent basis, Debye-Ang**2):
  XXX=            518.8913  YYY=            147.4068  ZZZ=            -62.9338  XYY=            201.3504
  XXY=             99.1086  XXZ=           -155.6965  XZZ=            175.8191  YZZ=             33.1484
  YYZ=            -20.9431  XYZ=             14.6846
 Hexadecapole moment (field-independent basis, Debye-Ang**3):
 XXXX=          -3040.3471 YYYY=          -1286.4336 ZZZZ=          -1249.2964 XXXY=           -457.8761
 XXXZ=            751.1894 YYYX=           -415.4798 YYYZ=             55.5311 ZZZX=            322.4951
 ZZZY=            110.1306 XXYY=           -893.6727 XXZZ=           -789.9501 YYZZ=           -467.8928
 XXYZ=            -57.6644 YYXZ=             82.4376 ZZXY=           -137.0197
 N-N= 5.546185469205D+02 E-N=-2.754007477096D+03  KE= 6.814722653157D+02
 Counterpoise: doing DCBS calculation for fragment   1 NewBq=T
 Basis read from rwf:  (6D, 7F)
 Integral buffers will be    131072 words long.
 Raffenetti 2 integral format.
 Two-electron integral symmetry is turned off.
   273 basis functions,   424 primitive gaussians,   273 cartesian basis functions
     5 alpha electrons        5 beta electrons
       nuclear repulsion energy        10.3222753771 Hartrees.
 NAtoms=   26 NActive=   26 NUniq=   26 SFac= 7.50D-01 NAtFMM=   80 NAOKFM=F Big=F
 FoFCou: FMM=F IPFlag=           0 FMFlag=      100000 FMFlg1=           0
         NFxFlg=           0 DoJE=F BraDBF=T KetDBF=T FulRan=T
         Omega=  0.000000  0.000000  1.000000  0.000000  0.000000 ICntrl=    1100 IOpCl=  0
         NMat0=    1 NMatS0=    1 NMatT0=    0 NMatD0=    1 NMtDS0=    0 NMtDT0=    0
         I1Cent=    10001006 NGrid=          83.
 Symmetry not used in FoFCou.
 Self energy of the charges =        -5.8402918693 a.u.
 MM   energy of the charges =         0.0000000000 a.u.
 Nuclei-charges interaction =         0.2255155471 a.u.
 Nuclear repulsion after external point charges =        4.7074990549 Hartrees.
 One-electron integrals computed using PRISM.
 NBasis=   273 RedAO= T  NBF=   273
 NBsUse=   273 1.00D-06 NBFU=   273
 Harris functional with IExCor=  402 diagonalized for initial guess.
 ExpMin= 3.60D-02 ExpMax= 5.48D+03 ExpMxC= 8.25D+02 IAcc=3 IRadAn=         0 AccDes= 0.00D+00
 HarFok:  IExCor=  402 AccDes= 0.00D+00 IRadAn=         0 IDoV= 1
 ScaDFX=  1.000000  1.000000  1.000000  1.000000
 FoFCou: FMM=F IPFlag=           0 FMFlag=      100000 FMFlg1=           0
         NFxFlg=           0 DoJE=T BraDBF=F KetDBF=T FulRan=T
         Omega=  0.000000  0.000000  1.000000  0.000000  0.000000 ICntrl=     500 IOpCl=  0
         NMat0=    1 NMatS0=    1 NMatT0=    0 NMatD0=    1 NMtDS0=    0 NMtDT0=    0
         I1Cent=           4 NGrid=           0.
 Symmetry not used in FoFCou.
 Requested convergence on RMS density matrix=1.00D-08 within 128 cycles.
 Requested convergence on MAX density matrix=1.00D-06.
 Requested convergence on             energy=1.00D-06.
 No special actions if energy rises.
 SCF Done:  E(RB3LYP) =  -82.1994115093     A.U. after    8 cycles
             Convg  =    0.1277D-08             -V/T =  2.0775

 **********************************************************************

            Population analysis using the SCF density.

 **********************************************************************

 Alpha  occ. eigenvalues --  -19.17633  -1.10907  -0.59023  -0.43394  -0.35420
 Alpha virt. eigenvalues --   -0.04227   0.00142   0.00455   0.01864   0.04009
 Alpha virt. eigenvalues --    0.04602   0.05478   0.05674   0.06192   0.07166
 Alpha virt. eigenvalues --    0.08068   0.08624   0.09195   0.09673   0.10872
 Alpha virt. eigenvalues --    0.11244   0.12502   0.12751   0.13673   0.14548
 Alpha virt. eigenvalues --    0.15247   0.15406   0.16476   0.16611   0.17913
 Alpha virt. eigenvalues --    0.18698   0.19552   0.20872   0.21587   0.21866
 Alpha virt. eigenvalues --    0.22137   0.22542   0.22913   0.23243   0.24431
 Alpha virt. eigenvalues --    0.24570   0.24788   0.25991   0.26632   0.27220
 Alpha virt. eigenvalues --    0.27696   0.29170   0.29869   0.30193   0.31606
 Alpha virt. eigenvalues --    0.31987   0.32411   0.33366   0.34847   0.35376
 Alpha virt. eigenvalues --    0.35758   0.37732   0.38833   0.40969   0.45099
 Alpha virt. eigenvalues --    0.48009   0.49676   0.50471   0.51571   0.53278
 Alpha virt. eigenvalues --    0.53983   0.55515   0.56096   0.56610   0.58109
 Alpha virt. eigenvalues --    0.58898   0.59845   0.60999   0.61222   0.63952
 Alpha virt. eigenvalues --    0.69252   0.70015   0.73054   0.74471   0.75201
 Alpha virt. eigenvalues --    0.76898   0.77588   0.82471   0.83772   0.86205
 Alpha virt. eigenvalues --    0.87193   0.87530   0.88787   0.89195   0.90262
 Alpha virt. eigenvalues --    0.90832   0.91247   0.91916   0.92693   0.94026
 Alpha virt. eigenvalues --    0.95048   0.96946   0.97231   0.98946   1.00046
 Alpha virt. eigenvalues --    1.02844   1.03638   1.05189   1.08296   1.10923
 Alpha virt. eigenvalues --    1.15227   1.19957   1.22281   1.25969   1.28973
 Alpha virt. eigenvalues --    1.34690   1.38534   1.55204   1.58521   1.62119
 Alpha virt. eigenvalues --    1.78822   2.18511   2.20556   2.23384   2.23963
 Alpha virt. eigenvalues --    2.27046   2.29190   2.29599   2.30480   2.31383
 Alpha virt. eigenvalues --    2.32460   2.32588   2.34102   2.35134   2.36720
 Alpha virt. eigenvalues --    2.36734   2.37296   2.39115   2.39241   2.40401
 Alpha virt. eigenvalues --    2.42928   2.43575   2.44132   2.45052   2.45463
 Alpha virt. eigenvalues --    2.46543   2.48010   2.48176   2.49397   2.50186
 Alpha virt. eigenvalues --    2.50882   2.51440   2.52216   2.53336   2.55522
 Alpha virt. eigenvalues --    2.56057   2.56946   2.57166   2.58058   2.59134
 Alpha virt. eigenvalues --    2.60202   2.61526   2.62596   2.65486   2.66279
 Alpha virt. eigenvalues --    2.67139   2.69458   2.70938   2.73972   2.74783
 Alpha virt. eigenvalues --    2.79974   2.82624   2.90438   2.93157   2.98930
 Alpha virt. eigenvalues --    3.02642   3.04319   3.05467   3.06345   3.09465
 Alpha virt. eigenvalues --    3.10491   3.16196   3.18145   3.19051   3.24999
 Alpha virt. eigenvalues --    3.25416   3.26185   3.27119   3.29013   3.30155
 Alpha virt. eigenvalues --    3.32295   3.33607   3.34288   3.35922   3.38670
 Alpha virt. eigenvalues --    3.41071   3.42449   3.43159   3.44724   3.45076
 Alpha virt. eigenvalues --    3.47419   3.48545   3.49541   3.50864   3.51047
 Alpha virt. eigenvalues --    3.52444   3.54962   3.55493   3.57297   3.59121
 Alpha virt. eigenvalues --    3.60916   3.66756   3.68525   3.79320   3.82753
 Alpha virt. eigenvalues --    3.83511   3.87816   3.90482   3.92502   3.94415
 Alpha virt. eigenvalues --    3.96670   4.03914   4.06449   4.07967   4.11809
 Alpha virt. eigenvalues --    4.13755   4.16398   4.18190   4.20504   4.21593
 Alpha virt. eigenvalues --    4.22971   4.29717   4.33387   4.36718   4.37134
 Alpha virt. eigenvalues --    4.40217   4.43664   4.53533   4.58305   4.59777
 Alpha virt. eigenvalues --    4.64129   4.65139   4.69067   4.73654   4.74897
 Alpha virt. eigenvalues --    4.84071   5.42606   5.44706   5.46724   5.47749
 Alpha virt. eigenvalues --    5.54841   5.56736   5.62933   5.63388   5.84654
 Alpha virt. eigenvalues --    6.34703   6.35921   6.39395   6.42582   6.50208
 Alpha virt. eigenvalues --    6.55861   6.73060   6.81010   6.89492   6.93701
 Alpha virt. eigenvalues --    6.94413   7.01844   7.09018   7.22208   7.49842
 Alpha virt. eigenvalues --   38.29595  38.47749  38.50063  38.66503  38.71338
 Alpha virt. eigenvalues --   38.80755  38.87127  39.17279
          Condensed to atoms (all electrons):
              1          2          3          4          5          6
     1  O    0.007174  -0.015124   0.000051  -0.002337   0.018099   0.001632
     2  H   -0.015124   0.049314  -0.004710   0.004517  -0.003246  -0.009076
     3  H    0.000051  -0.004710   0.404318  -0.002684   0.238327   0.001472
     4  H   -0.002337   0.004517  -0.002684   0.364331   0.230246  -0.000012
     5  O    0.018099  -0.003246   0.238327   0.230246   8.302839  -0.009309
     6  H    0.001632  -0.009076   0.001472  -0.000012  -0.009309   0.004087
     7  H   -0.000387   0.001838  -0.000084   0.000265  -0.000782  -0.001249
     8  O   -0.000938   0.001536   0.000375   0.001032  -0.007374   0.000076
     9  H    0.000148  -0.000890   0.001429   0.000152  -0.002038   0.000183
    10  H   -0.000276   0.001156  -0.000162   0.000480   0.002254  -0.000235
    11  O   -0.000141   0.000947  -0.003061  -0.000781   0.005788  -0.000074
    12  H   -0.000365   0.001229  -0.001102   0.000588  -0.003700   0.000019
    13  H    0.000033  -0.000006   0.000332   0.000074   0.000965  -0.000023
    14  O    0.000276  -0.001706   0.001731  -0.000302   0.002269   0.000108
    15  H    0.001922  -0.004889   0.005318  -0.004324  -0.043116  -0.000338
    16  H   -0.000084  -0.000359  -0.000089  -0.000066   0.000541   0.000472
    17  O   -0.000178   0.001432  -0.003749  -0.001858   0.027450  -0.000346
    18  H   -0.000214   0.001055   0.000556  -0.000273   0.002838  -0.000636
    19  H    0.000113   0.000075  -0.000280  -0.000181   0.000782  -0.000112
    20  O    0.000900  -0.002553   0.000069  -0.000745   0.003944   0.000600
    21  H    0.000059  -0.000644   0.000779   0.001858  -0.002014   0.000073
    22  H    0.000029   0.000333  -0.001232  -0.003384   0.002161  -0.000049
    23  O    0.000146   0.000193  -0.003661  -0.006515   0.014584  -0.000109
    24  H    0.003654  -0.014346   0.001271  -0.001369   0.000530   0.002422
    25  H   -0.000363   0.001782  -0.000270   0.000088  -0.000313  -0.000241
    26  O   -0.000323   0.000863  -0.000244   0.000112  -0.001486  -0.000026
              7          8          9         10         11         12
     1  O   -0.000387  -0.000938   0.000148  -0.000276  -0.000141  -0.000365
     2  H    0.001838   0.001536  -0.000890   0.001156   0.000947   0.001229
     3  H   -0.000084   0.000375   0.001429  -0.000162  -0.003061  -0.001102
     4  H    0.000265   0.001032   0.000152   0.000480  -0.000781   0.000588
     5  O   -0.000782  -0.007374  -0.002038   0.002254   0.005788  -0.003700
     6  H   -0.001249   0.000076   0.000183  -0.000235  -0.000074   0.000019
     7  H    0.001313  -0.000546  -0.000001   0.000062  -0.000042  -0.000005
     8  O   -0.000546   0.001203   0.000016   0.000143  -0.000078   0.000038
     9  H   -0.000001   0.000016   0.000767  -0.000009  -0.001152  -0.000281
    10  H    0.000062   0.000143  -0.000009   0.000599  -0.000152   0.000220
    11  O   -0.000042  -0.000078  -0.001152  -0.000152   0.002575   0.000570
    12  H   -0.000005   0.000038  -0.000281   0.000220   0.000570   0.002224
    13  H    0.000003  -0.000003   0.000045  -0.000025  -0.000106  -0.000165
    14  O   -0.000004  -0.000007   0.000298  -0.000191  -0.000595  -0.001841
    15  H    0.000040  -0.000936   0.000542  -0.001254  -0.001904  -0.000773
    16  H   -0.000244   0.000016  -0.000048   0.000019   0.000201   0.000051
    17  O   -0.000003  -0.000043  -0.000290   0.000289   0.000971   0.000109
    18  H    0.000139  -0.000081   0.000116  -0.000065  -0.000290  -0.000426
    19  H   -0.000052  -0.000044  -0.000095  -0.000026   0.000099  -0.000029
    20  O   -0.000138  -0.000184  -0.000043  -0.000180   0.000052  -0.000345
    21  H    0.000001   0.000006   0.000020  -0.000021  -0.000042  -0.000050
    22  H   -0.000004  -0.000020  -0.000025   0.000006   0.000059   0.000007
    23  O   -0.000009  -0.000053  -0.000014  -0.000024   0.000032  -0.000050
    24  H   -0.000421  -0.000219   0.000145  -0.000181  -0.000093  -0.000338
    25  H    0.000028   0.000016  -0.000016   0.000015   0.000010   0.000066
    26  O    0.000007   0.000016  -0.000009   0.000010   0.000008   0.000079
             13         14         15         16         17         18
     1  O    0.000033   0.000276   0.001922  -0.000084  -0.000178  -0.000214
     2  H   -0.000006  -0.001706  -0.004889  -0.000359   0.001432   0.001055
     3  H    0.000332   0.001731   0.005318  -0.000089  -0.003749   0.000556
     4  H    0.000074  -0.000302  -0.004324  -0.000066  -0.001858  -0.000273
     5  O    0.000965   0.002269  -0.043116   0.000541   0.027450   0.002838
     6  H   -0.000023   0.000108  -0.000338   0.000472  -0.000346  -0.000636
     7  H    0.000003  -0.000004   0.000040  -0.000244  -0.000003   0.000139
     8  O   -0.000003  -0.000007  -0.000936   0.000016  -0.000043  -0.000081
     9  H    0.000045   0.000298   0.000542  -0.000048  -0.000290   0.000116
    10  H   -0.000025  -0.000191  -0.001254   0.000019   0.000289  -0.000065
    11  O   -0.000106  -0.000595  -0.001904   0.000201   0.000971  -0.000290
    12  H   -0.000165  -0.001841  -0.000773   0.000051   0.000109  -0.000426
    13  H    0.000150  -0.000002   0.000165  -0.000012  -0.000030   0.000084
    14  O   -0.000002   0.001962   0.000441  -0.000022  -0.000048   0.000229
    15  H    0.000165   0.000441   0.024520  -0.001534  -0.010315   0.000985
    16  H   -0.000012  -0.000022  -0.001534   0.000659   0.000332  -0.000123
    17  O   -0.000030  -0.000048  -0.010315   0.000332   0.006626  -0.000231
    18  H    0.000084   0.000229   0.000985  -0.000123  -0.000231   0.000696
    19  H   -0.000004  -0.000009   0.000078   0.000001   0.000033   0.000018
    20  O    0.000008   0.000291   0.000363   0.000016   0.000027  -0.000327
    21  H    0.000024   0.000064   0.000153  -0.000012  -0.000087   0.000015
    22  H   -0.000022  -0.000033   0.000075   0.000002   0.000086   0.000005
    23  O    0.000001   0.000007   0.000654  -0.000025   0.000141   0.000037
    24  H   -0.000035   0.000532   0.000503   0.000058  -0.000098  -0.000339
    25  H   -0.000006  -0.000083  -0.000046  -0.000001   0.000006   0.000011
    26  O   -0.000023  -0.000051  -0.000116   0.000007   0.000007  -0.000067
             19         20         21         22         23         24
     1  O    0.000113   0.000900   0.000059   0.000029   0.000146   0.003654
     2  H    0.000075  -0.002553  -0.000644   0.000333   0.000193  -0.014346
     3  H   -0.000280   0.000069   0.000779  -0.001232  -0.003661   0.001271
     4  H   -0.000181  -0.000745   0.001858  -0.003384  -0.006515  -0.001369
     5  O    0.000782   0.003944  -0.002014   0.002161   0.014584   0.000530
     6  H   -0.000112   0.000600   0.000073  -0.000049  -0.000109   0.002422
     7  H   -0.000052  -0.000138   0.000001  -0.000004  -0.000009  -0.000421
     8  O   -0.000044  -0.000184   0.000006  -0.000020  -0.000053  -0.000219
     9  H   -0.000095  -0.000043   0.000020  -0.000025  -0.000014   0.000145
    10  H   -0.000026  -0.000180  -0.000021   0.000006  -0.000024  -0.000181
    11  O    0.000099   0.000052  -0.000042   0.000059   0.000032  -0.000093
    12  H   -0.000029  -0.000345  -0.000050   0.000007  -0.000050  -0.000338
    13  H   -0.000004   0.000008   0.000024  -0.000022   0.000001  -0.000035
    14  O   -0.000009   0.000291   0.000064  -0.000033   0.000007   0.000532
    15  H    0.000078   0.000363   0.000153   0.000075   0.000654   0.000503
    16  H    0.000001   0.000016  -0.000012   0.000002  -0.000025   0.000058
    17  O    0.000033   0.000027  -0.000087   0.000086   0.000141  -0.000098
    18  H    0.000018  -0.000327   0.000015   0.000005   0.000037  -0.000339
    19  H    0.000212  -0.000120  -0.000005   0.000007   0.000010   0.000003
    20  O   -0.000120   0.001006   0.000002   0.000018   0.000028   0.000594
    21  H   -0.000005   0.000002   0.000437  -0.000362  -0.000738   0.000201
    22  H    0.000007   0.000018  -0.000362   0.000786   0.000469  -0.000076
    23  O    0.000010   0.000028  -0.000738   0.000469   0.003115   0.000017
    24  H    0.000003   0.000594   0.000201  -0.000076   0.000017   0.006949
    25  H    0.000003  -0.000053  -0.000049   0.000020   0.000012  -0.001198
    26  O   -0.000005  -0.000032  -0.000032   0.000009   0.000026  -0.000558
             25         26
     1  O   -0.000363  -0.000323
     2  H    0.001782   0.000863
     3  H   -0.000270  -0.000244
     4  H    0.000088   0.000112
     5  O   -0.000313  -0.001486
     6  H   -0.000241  -0.000026
     7  H    0.000028   0.000007
     8  O    0.000016   0.000016
     9  H   -0.000016  -0.000009
    10  H    0.000015   0.000010
    11  O    0.000010   0.000008
    12  H    0.000066   0.000079
    13  H   -0.000006  -0.000023
    14  O   -0.000083  -0.000051
    15  H   -0.000046  -0.000116
    16  H   -0.000001   0.000007
    17  O    0.000006   0.000007
    18  H    0.000011  -0.000067
    19  H    0.000003  -0.000005
    20  O   -0.000053  -0.000032
    21  H   -0.000049  -0.000032
    22  H    0.000020   0.000009
    23  O    0.000012   0.000026
    24  H   -0.001198  -0.000558
    25  H    0.000333   0.000065
    26  O    0.000065   0.000244
 Mulliken atomic charges:
              1
     1  O   -0.013506
     2  H   -0.008721
     3  H    0.365300
     4  H    0.421087
     5  O   -0.780241
     6  H    0.010689
     7  H    0.000273
     8  O    0.006053
     9  H    0.001051
    10  H   -0.002452
    11  O   -0.002800
    12  H    0.004270
    13  H   -0.001422
    14  O   -0.003312
    15  H    0.033785
    16  H    0.000243
    17  O   -0.020236
    18  H   -0.003713
    19  H   -0.000473
    20  O   -0.003198
    21  H    0.000364
    22  H    0.001135
    23  O   -0.008273
    24  H    0.002391
    25  H    0.000184
    26  O    0.001522
 Sum of Mulliken atomic charges =   0.00000
 Mulliken charges with hydrogens summed into heavy atoms:
              1
     1  O   -0.022227
     5  O    0.006145
     8  O    0.017015
    11  O   -0.004200
    14  O   -0.000464
    17  O    0.013792
    20  O   -0.007384
    23  O   -0.006774
    26  O    0.004098
 Sum of Mulliken charges with hydrogens summed into heavy atoms =   0.00000
          Condensed to fragments (all electrons):
     1       0.006145
     2      -0.006145
 Electronic spatial extent (au):  <R**2>=            331.5956
 Charge=              0.0000 electrons
 Dipole moment (field-independent basis, Debye):
    X=             -1.8129    Y=              1.1945    Z=             -0.1573  Tot=              2.1767
 Quadrupole moment (field-independent basis, Debye-Ang):
   XX=              3.3665   YY=             -9.7911   ZZ=             -4.6345
   XY=             -1.9253   XZ=              1.9838   YZ=             -0.2820
 Traceless Quadrupole moment (field-independent basis, Debye-Ang):
   XX=              7.0529   YY=             -6.1048   ZZ=             -0.9481
   XY=             -1.9253   XZ=              1.9838   YZ=             -0.2820
 Octapole moment (field-independent basis, Debye-Ang**2):
  XXX=             11.8779  YYY=             28.0924  ZZZ=              6.7971  XYY=             25.6392
  XXY=              9.0070  XXZ=             -6.8056  XZZ=             10.6249  YZZ=              5.7451
  YYZ=              4.3837  XYZ=             -0.4788
 Hexadecapole moment (field-independent basis, Debye-Ang**3):
 XXXX=           -140.4822 YYYY=            -66.5830 ZZZZ=            -12.6987 XXXY=            -53.9478
 XXXZ=             15.1144 YYYX=            -75.5923 YYYZ=            -13.0703 ZZZX=            -16.3792
 ZZZY=             -8.0730 XXYY=            -77.9551 XXZZ=            -26.7887 YYZZ=            -11.1360
 XXYZ=              1.4331 YYXZ=            -11.0014 ZZXY=            -13.9926
 N-N= 4.707499054856D+00 E-N=-2.013017256226D+02  KE= 7.628844685223D+01
 Counterpoise: doing DCBS calculation for fragment   2 NewBq=T
 Basis read from rwf:  (6D, 7F)
 Integral buffers will be    131072 words long.
 Raffenetti 2 integral format.
 Two-electron integral symmetry is turned off.
   273 basis functions,   424 primitive gaussians,   273 cartesian basis functions
    40 alpha electrons       40 beta electrons
       nuclear repulsion energy       416.2056186595 Hartrees.
 NAtoms=   26 NActive=   26 NUniq=   26 SFac= 7.50D-01 NAtFMM=   80 NAOKFM=F Big=F
 FoFCou: FMM=F IPFlag=           0 FMFlag=      100000 FMFlg1=           0
         NFxFlg=           0 DoJE=F BraDBF=T KetDBF=T FulRan=T
         Omega=  0.000000  0.000000  1.000000  0.000000  0.000000 ICntrl=    1100 IOpCl=  0
         NMat0=    1 NMatS0=    1 NMatT0=    0 NMatD0=    1 NMtDS0=    0 NMtDT0=    0
         I1Cent=    10001006 NGrid=          83.
 Symmetry not used in FoFCou.
 Self energy of the charges =        -5.8402918693 a.u.
 MM   energy of the charges =         0.0000000000 a.u.
 Nuclei-charges interaction =         2.7930245393 a.u.
 Nuclear repulsion after external point charges =      413.1583513295 Hartrees.
 One-electron integrals computed using PRISM.
 NBasis=   273 RedAO= T  NBF=   273
 NBsUse=   273 1.00D-06 NBFU=   273
 Harris functional with IExCor=  402 diagonalized for initial guess.
 ExpMin= 3.60D-02 ExpMax= 5.48D+03 ExpMxC= 8.25D+02 IAcc=3 IRadAn=         0 AccDes= 0.00D+00
 HarFok:  IExCor=  402 AccDes= 0.00D+00 IRadAn=         0 IDoV= 1
 ScaDFX=  1.000000  1.000000  1.000000  1.000000
 FoFCou: FMM=F IPFlag=           0 FMFlag=      100000 FMFlg1=           0
         NFxFlg=           0 DoJE=T BraDBF=F KetDBF=T FulRan=T
         Omega=  0.000000  0.000000  1.000000  0.000000  0.000000 ICntrl=     500 IOpCl=  0
         NMat0=    1 NMatS0=    1 NMatT0=    0 NMatD0=    1 NMtDS0=    0 NMtDT0=    0
         I1Cent=           4 NGrid=           0.
 Symmetry not used in FoFCou.
 Requested convergence on RMS density matrix=1.00D-08 within 128 cycles.
 Requested convergence on MAX density matrix=1.00D-06.
 Requested convergence on             energy=1.00D-06.
 No special actions if energy rises.
 SCF Done:  E(RB3LYP) =  -616.980435421     A.U. after   12 cycles
             Convg  =    0.3121D-08             -V/T =  2.0198

 **********************************************************************

            Population analysis using the SCF density.

 **********************************************************************

 Alpha  occ. eigenvalues --  -19.08203 -19.07904 -19.06573 -19.05869 -19.02982
 Alpha  occ. eigenvalues --  -19.02602 -19.01921 -19.00568  -0.94442  -0.91894
 Alpha  occ. eigenvalues --   -0.90742  -0.89169  -0.87942  -0.86208  -0.85647
 Alpha  occ. eigenvalues --   -0.82307  -0.44671  -0.44382  -0.43626  -0.40787
 Alpha  occ. eigenvalues --   -0.39964  -0.39516  -0.37366  -0.32942  -0.31862
 Alpha  occ. eigenvalues --   -0.31259  -0.30405  -0.28618  -0.27210  -0.26032
 Alpha  occ. eigenvalues --   -0.23793  -0.23716  -0.23481  -0.22453  -0.21545
 Alpha  occ. eigenvalues --   -0.19025  -0.18473  -0.17311  -0.17220  -0.16673
 Alpha virt. eigenvalues --    0.06392   0.08019   0.09979   0.10844   0.11000
 Alpha virt. eigenvalues --    0.11953   0.13510   0.14627   0.14958   0.16907
 Alpha virt. eigenvalues --    0.17070   0.17775   0.18124   0.18530   0.20296
 Alpha virt. eigenvalues --    0.20654   0.21680   0.22034   0.23623   0.24576
 Alpha virt. eigenvalues --    0.25105   0.26248   0.26733   0.27153   0.27869
 Alpha virt. eigenvalues --    0.28204   0.28561   0.28947   0.29722   0.30294
 Alpha virt. eigenvalues --    0.30375   0.30778   0.31711   0.32006   0.32542
 Alpha virt. eigenvalues --    0.32856   0.33753   0.34201   0.34414   0.34664
 Alpha virt. eigenvalues --    0.35769   0.36276   0.36553   0.37111   0.37498
 Alpha virt. eigenvalues --    0.38347   0.38897   0.39232   0.39438   0.39751
 Alpha virt. eigenvalues --    0.41385   0.41757   0.42167   0.42286   0.42653
 Alpha virt. eigenvalues --    0.43669   0.44359   0.47683   0.48132   0.48624
 Alpha virt. eigenvalues --    0.50099   0.50331   0.51205   0.53593   0.55187
 Alpha virt. eigenvalues --    0.57354   0.57674   0.61226   0.70401   0.72209
 Alpha virt. eigenvalues --    0.85193   1.01267   1.03216   1.06648   1.08025
 Alpha virt. eigenvalues --    1.09136   1.09881   1.10647   1.13009   1.14175
 Alpha virt. eigenvalues --    1.14807   1.16443   1.20498   1.20864   1.22671
 Alpha virt. eigenvalues --    1.24032   1.25414   1.25932   1.26008   1.26953
 Alpha virt. eigenvalues --    1.27277   1.27990   1.28792   1.29524   1.30729
 Alpha virt. eigenvalues --    1.31024   1.32111   1.32526   1.32637   1.33437
 Alpha virt. eigenvalues --    1.35103   1.35596   1.36099   1.37158   1.37607
 Alpha virt. eigenvalues --    1.37768   1.38760   1.39809   1.40823   1.41213
 Alpha virt. eigenvalues --    1.41618   1.45771   1.47659   1.53490   1.56000
 Alpha virt. eigenvalues --    1.58901   1.59219   1.59954   1.61050   1.63796
 Alpha virt. eigenvalues --    1.64110   1.64625   1.65399   1.66308   1.67353
 Alpha virt. eigenvalues --    1.68915   1.69403   1.70676   1.71136   1.72037
 Alpha virt. eigenvalues --    1.73021   1.73790   1.75484   1.76277   1.77081
 Alpha virt. eigenvalues --    1.77513   1.79613   1.79963   1.82294   1.83273
 Alpha virt. eigenvalues --    1.84129   1.85185   1.93585   1.96354   1.97544
 Alpha virt. eigenvalues --    2.01664   2.28316   2.30448   2.30903   2.33323
 Alpha virt. eigenvalues --    2.34804   2.35131   2.36808   2.37456   2.38037
 Alpha virt. eigenvalues --    2.38181   2.39728   2.41388   2.45707   2.50130
 Alpha virt. eigenvalues --    2.53383   2.56378   2.57335   2.59218   2.60293
 Alpha virt. eigenvalues --    2.61941   2.64291   2.64812   2.66257   2.66560
 Alpha virt. eigenvalues --    2.68441   2.69165   2.70482   2.70958   2.71661
 Alpha virt. eigenvalues --    2.72098   2.73347   2.73937   2.76023   2.77837
 Alpha virt. eigenvalues --    2.77924   2.80156   2.81140   2.81709   2.82689
 Alpha virt. eigenvalues --    2.84189   2.87026   2.93261   2.93488   2.99940
 Alpha virt. eigenvalues --    3.08225   3.09011   3.10251   3.10758   3.12455
 Alpha virt. eigenvalues --    3.17796   3.19434   3.34231   3.45508   3.49845
 Alpha virt. eigenvalues --    3.51361   3.53576   3.54522   3.55848   3.57004
 Alpha virt. eigenvalues --    3.59196   3.64714   3.69094   3.69791   3.74593
 Alpha virt. eigenvalues --    3.75383   3.76780   3.78429   3.81031   3.87934
 Alpha virt. eigenvalues --    3.89873   3.94806   4.13858   4.20362   4.26123
 Alpha virt. eigenvalues --    4.26689   4.29657   4.32274   4.37857   4.39778
 Alpha virt. eigenvalues --    4.45240   4.50750   4.59426   4.96159   5.86575
 Alpha virt. eigenvalues --    6.92713   9.85076  39.40970
          Condensed to atoms (all electrons):
              1          2          3          4          5          6
     1  O    8.865533   0.216850  -0.007245  -0.000674   0.020867   0.087897
     2  H    0.216850   0.479796   0.017352  -0.010920  -0.004016  -0.024909
     3  H   -0.007245   0.017352   0.082194  -0.030419  -0.050838  -0.010518
     4  H   -0.000674  -0.010920  -0.030419   0.053916   0.005260   0.007860
     5  O    0.020867  -0.004016  -0.050838   0.005260   0.067826   0.008079
     6  H    0.087897  -0.024909  -0.010518   0.007860   0.008079   0.376853
     7  H    0.003320   0.002567   0.000866  -0.000232  -0.000782  -0.015434
     8  O   -0.050006  -0.009517   0.003237  -0.001518   0.001824   0.180706
     9  H   -0.001681  -0.001889  -0.003791   0.000599   0.002068  -0.000163
    10  H    0.000479   0.000062  -0.002631  -0.000683   0.006129   0.001732
    11  O   -0.003082   0.006237   0.018422  -0.005903   0.007600   0.000187
    12  H    0.000004  -0.006191   0.004040  -0.000159  -0.000691   0.002508
    13  H    0.000749   0.001152   0.002972  -0.002741  -0.000478  -0.000357
    14  O   -0.001587   0.005856   0.008164  -0.004882  -0.003092  -0.001251
    15  H   -0.000360  -0.007410   0.019893  -0.015893  -0.010898  -0.005869
    16  H   -0.000445   0.000376   0.002270   0.000419  -0.002529   0.000849
    17  O   -0.001565  -0.002755  -0.017842   0.002144   0.029705   0.000185
    18  H    0.085807   0.009626  -0.006019  -0.000071   0.002498  -0.008881
    19  H    0.001438   0.004563   0.001787  -0.000410  -0.000156  -0.003515
    20  O   -0.077703  -0.007315  -0.000321  -0.000541   0.001511   0.001453
    21  H   -0.000688  -0.001049  -0.000570  -0.000744  -0.000305   0.000168
    22  H    0.000272  -0.000451   0.000267  -0.005159  -0.001379  -0.000117
    23  O    0.001089  -0.005735  -0.044665   0.006975   0.029441   0.001378
    24  H    0.061337  -0.013690   0.001303  -0.002074  -0.000856  -0.002272
    25  H    0.009769   0.005127   0.000046   0.000451   0.000003  -0.000521
    26  O   -0.100520  -0.010603  -0.003409   0.001148   0.000600   0.006661
              7          8          9         10         11         12
     1  O    0.003320  -0.050006  -0.001681   0.000479  -0.003082   0.000004
     2  H    0.002567  -0.009517  -0.001889   0.000062   0.006237  -0.006191
     3  H    0.000866   0.003237  -0.003791  -0.002631   0.018422   0.004040
     4  H   -0.000232  -0.001518   0.000599  -0.000683  -0.005903  -0.000159
     5  O   -0.000782   0.001824   0.002068   0.006129   0.007600  -0.000691
     6  H   -0.015434   0.180706  -0.000163   0.001732   0.000187   0.002508
     7  H    0.367454   0.251540   0.000134  -0.000353  -0.000178  -0.000196
     8  O    0.251540   8.504888  -0.001189  -0.000515  -0.001589   0.000075
     9  H    0.000134  -0.001189   0.376948  -0.036948   0.277278  -0.001662
    10  H   -0.000353  -0.000515  -0.036948   0.410729   0.256154   0.002128
    11  O   -0.000178  -0.001589   0.277278   0.256154   8.189606  -0.008275
    12  H   -0.000196   0.000075  -0.001662   0.002128  -0.008275   0.377191
    13  H    0.000019  -0.000003  -0.000427  -0.000379   0.002576  -0.025925
    14  O    0.000064  -0.000004   0.001225  -0.001026  -0.003305   0.261738
    15  H    0.001409   0.011366   0.001775  -0.002102  -0.002054  -0.000606
    16  H    0.000324  -0.002072  -0.000967  -0.000735   0.000106   0.000033
    17  O    0.001229  -0.016673   0.002399   0.012079  -0.002434  -0.000027
    18  H    0.002039  -0.005033   0.003137  -0.000290  -0.002646  -0.006999
    19  H   -0.000023   0.001309  -0.001979  -0.000323  -0.001696   0.000276
    20  O   -0.000202  -0.000152   0.005421   0.002528  -0.026449   0.006684
    21  H    0.000026   0.000037   0.000030   0.000073  -0.000170  -0.000044
    22  H   -0.000011  -0.000019  -0.000003  -0.000072   0.000322   0.000026
    23  O   -0.000082   0.000041  -0.000384   0.001431   0.000634   0.001501
    24  H   -0.000427   0.006096   0.000004  -0.000173  -0.001330   0.001550
    25  H    0.000010  -0.000226  -0.000014  -0.000005   0.000126  -0.000284
    26  O    0.000026  -0.001698  -0.000334   0.000106   0.000021   0.002373
             13         14         15         16         17         18
     1  O    0.000749  -0.001587  -0.000360  -0.000445  -0.001565   0.085807
     2  H    0.001152   0.005856  -0.007410   0.000376  -0.002755   0.009626
     3  H    0.002972   0.008164   0.019893   0.002270  -0.017842  -0.006019
     4  H   -0.002741  -0.004882  -0.015893   0.000419   0.002144  -0.000071
     5  O   -0.000478  -0.003092  -0.010898  -0.002529   0.029705   0.002498
     6  H   -0.000357  -0.001251  -0.005869   0.000849   0.000185  -0.008881
     7  H    0.000019   0.000064   0.001409   0.000324   0.001229   0.002039
     8  O   -0.000003  -0.000004   0.011366  -0.002072  -0.016673  -0.005033
     9  H   -0.000427   0.001225   0.001775  -0.000967   0.002399   0.003137
    10  H   -0.000379  -0.001026  -0.002102  -0.000735   0.012079  -0.000290
    11  O    0.002576  -0.003305  -0.002054   0.000106  -0.002434  -0.002646
    12  H   -0.025925   0.261738  -0.000606   0.000033  -0.000027  -0.006999
    13  H    0.389573   0.278321   0.000208  -0.000008   0.000004   0.000651
    14  O    0.278321   8.200641   0.000031   0.000019   0.000022  -0.000199
    15  H    0.000208   0.000031   0.396401  -0.014480   0.218815   0.000528
    16  H   -0.000008   0.000019  -0.014480   0.302952   0.261098  -0.000716
    17  O    0.000004   0.000022   0.218815   0.261098   8.337910  -0.000628
    18  H    0.000651  -0.000199   0.000528  -0.000716  -0.000628   0.362059
    19  H   -0.000113   0.000568  -0.000178   0.000357  -0.000038  -0.012820
    20  O   -0.000476   0.001429   0.001114  -0.000149  -0.000957   0.146575
    21  H    0.000010   0.000330   0.001009  -0.000065   0.000089   0.000175
    22  H    0.000065   0.000133   0.001180  -0.000084  -0.000080   0.000052
    23  O    0.000007  -0.000223  -0.011228   0.000938   0.000984   0.000304
    24  H    0.000130  -0.000104   0.002351  -0.000172   0.000236  -0.003024
    25  H   -0.000151  -0.000084  -0.000224   0.000024   0.000011  -0.000705
    26  O   -0.000729  -0.000524   0.000061  -0.000033  -0.000048  -0.000489
             19         20         21         22         23         24
     1  O    0.001438  -0.077703  -0.000688   0.000272   0.001089   0.061337
     2  H    0.004563  -0.007315  -0.001049  -0.000451  -0.005735  -0.013690
     3  H    0.001787  -0.000321  -0.000570   0.000267  -0.044665   0.001303
     4  H   -0.000410  -0.000541  -0.000744  -0.005159   0.006975  -0.002074
     5  O   -0.000156   0.001511  -0.000305  -0.001379   0.029441  -0.000856
     6  H   -0.003515   0.001453   0.000168  -0.000117   0.001378  -0.002272
     7  H   -0.000023  -0.000202   0.000026  -0.000011  -0.000082  -0.000427
     8  O    0.001309  -0.000152   0.000037  -0.000019   0.000041   0.006096
     9  H   -0.001979   0.005421   0.000030  -0.000003  -0.000384   0.000004
    10  H   -0.000323   0.002528   0.000073  -0.000072   0.001431  -0.000173
    11  O   -0.001696  -0.026449  -0.000170   0.000322   0.000634  -0.001330
    12  H    0.000276   0.006684  -0.000044   0.000026   0.001501   0.001550
    13  H   -0.000113  -0.000476   0.000010   0.000065   0.000007   0.000130
    14  O    0.000568   0.001429   0.000330   0.000133  -0.000223  -0.000104
    15  H   -0.000178   0.001114   0.001009   0.001180  -0.011228   0.002351
    16  H    0.000357  -0.000149  -0.000065  -0.000084   0.000938  -0.000172
    17  O   -0.000038  -0.000957   0.000089  -0.000080   0.000984   0.000236
    18  H   -0.012820   0.146575   0.000175   0.000052   0.000304  -0.003024
    19  H    0.316981   0.245552  -0.000013   0.000007  -0.000056  -0.000427
    20  O    0.245552   8.653704  -0.000052   0.000040   0.000047   0.001558
    21  H   -0.000013  -0.000052   0.261561  -0.020055   0.294080  -0.000198
    22  H    0.000007   0.000040  -0.020055   0.333704   0.275949   0.000435
    23  O   -0.000056   0.000047   0.294080   0.275949   8.334318   0.000419
    24  H   -0.000427   0.001558  -0.000198   0.000435   0.000419   0.305097
    25  H    0.000131   0.000448   0.000267  -0.000086  -0.000039  -0.025202
    26  O   -0.000024  -0.001991  -0.002108   0.000605   0.001190   0.219087
             25         26
     1  O    0.009769  -0.100520
     2  H    0.005127  -0.010603
     3  H    0.000046  -0.003409
     4  H    0.000451   0.001148
     5  O    0.000003   0.000600
     6  H   -0.000521   0.006661
     7  H    0.000010   0.000026
     8  O   -0.000226  -0.001698
     9  H   -0.000014  -0.000334
    10  H   -0.000005   0.000106
    11  O    0.000126   0.000021
    12  H   -0.000284   0.002373
    13  H   -0.000151  -0.000729
    14  O   -0.000084  -0.000524
    15  H   -0.000224   0.000061
    16  H    0.000024  -0.000033
    17  O    0.000011  -0.000048
    18  H   -0.000705  -0.000489
    19  H    0.000131  -0.000024
    20  O    0.000448  -0.001991
    21  H    0.000267  -0.002108
    22  H   -0.000086   0.000605
    23  O   -0.000039   0.001190
    24  H   -0.025202   0.219087
    25  H    0.389497   0.266017
    26  O    0.266017   8.510536
 Mulliken atomic charges:
              1
     1  O   -1.109856
     2  H    0.356886
     3  H    0.015453
     4  H    0.004249
     5  O   -0.107392
     6  H    0.397288
     7  H    0.386896
     8  O   -0.870903
     9  H    0.380410
    10  H    0.352604
    11  O   -0.700158
    12  H    0.390934
    13  H    0.355349
    14  O   -0.742262
    15  H    0.415161
    16  H    0.452691
    17  O   -0.823863
    18  H    0.435069
    19  H    0.448801
    20  O   -0.951754
    21  H    0.468206
    22  H    0.414459
    23  O   -0.888313
    24  H    0.450348
    25  H    0.355616
    26  O   -0.885919
 Sum of Mulliken atomic charges =  -1.00000
 Mulliken charges with hydrogens summed into heavy atoms:
              1
     1  O   -0.752969
     5  O   -0.087689
     8  O   -0.086719
    11  O    0.032856
    14  O    0.004021
    17  O    0.043989
    20  O   -0.067884
    23  O   -0.005648
    26  O   -0.079955
 Sum of Mulliken charges with hydrogens summed into heavy atoms =  -1.00000
          Condensed to fragments (all electrons):
     1      -0.087689
     2      -0.912311
 Electronic spatial extent (au):  <R**2>=           3933.0149
 Charge=             -1.0000 electrons
 Dipole moment (field-independent basis, Debye):
    X=             12.1272    Y=              2.1438    Z=             -1.8127  Tot=             12.4479
 Quadrupole moment (field-independent basis, Debye-Ang):
   XX=           -104.3779   YY=            -63.2856   ZZ=            -75.1144
   XY=            -16.2050   XZ=             27.7411   YZ=             -7.2482
 Traceless Quadrupole moment (field-independent basis, Debye-Ang):
   XX=            -23.4519   YY=             17.6404   ZZ=              5.8116
   XY=            -16.2050   XZ=             27.7411   YZ=             -7.2482
 Octapole moment (field-independent basis, Debye-Ang**2):
  XXX=            521.9377  YYY=            103.6043  ZZZ=            -58.7907  XYY=            168.2186
  XXY=             84.8494  XXZ=           -131.9436  XZZ=            177.0017  YZZ=             28.4002
  YYZ=            -21.4824  XYZ=             18.8010
 Hexadecapole moment (field-independent basis, Debye-Ang**3):
 XXXX=          -2971.0420 YYYY=          -1147.7960 ZZZZ=          -1279.6670 XXXY=           -389.2608
 XXXZ=            664.0307 YYYX=           -296.2976 YYYZ=             49.0079 ZZZX=            294.4061
 ZZZY=            111.6673 XXYY=           -791.3237 XXZZ=           -812.6605 YYZZ=           -454.0089
 XXYZ=            -72.6735 YYXZ=             82.5174 ZZXY=           -126.3396
 N-N= 4.131583513295D+02 E-N=-2.289182119233D+03  KE= 6.050168163999D+02
 Counterpoise: doing MCBS calculation for fragment   1
 Basis read from rwf:  (6D, 7F)
 Integral buffers will be    131072 words long.
 Raffenetti 2 integral format.
 Two-electron integral symmetry is turned off.
    31 basis functions,    48 primitive gaussians,    31 cartesian basis functions
     5 alpha electrons        5 beta electrons
       nuclear repulsion energy        10.3222753771 Hartrees.
 NAtoms=   26 NActive=    3 NUniq=    3 SFac= 7.50D-01 NAtFMM=   80 NAOKFM=F Big=F
 FoFCou: FMM=F IPFlag=           0 FMFlag=      100000 FMFlg1=           0
         NFxFlg=           0 DoJE=F BraDBF=T KetDBF=T FulRan=T
         Omega=  0.000000  0.000000  1.000000  0.000000  0.000000 ICntrl=    1100 IOpCl=  0
         NMat0=    1 NMatS0=    1 NMatT0=    0 NMatD0=    1 NMtDS0=    0 NMtDT0=    0
         I1Cent=    10001006 NGrid=          83.
 Symmetry not used in FoFCou.
 Self energy of the charges =        -5.8402918693 a.u.
 MM   energy of the charges =         0.0000000000 a.u.
 Nuclei-charges interaction =         0.2255155471 a.u.
 Nuclear repulsion after external point charges =        4.7074990549 Hartrees.
 One-electron integrals computed using PRISM.
 NBasis=    31 RedAO= T  NBF=    31
 NBsUse=    31 1.00D-06 NBFU=    31
 Harris functional with IExCor=  402 diagonalized for initial guess.
 ExpMin= 3.60D-02 ExpMax= 5.48D+03 ExpMxC= 8.25D+02 IAcc=3 IRadAn=         0 AccDes= 0.00D+00
 HarFok:  IExCor=  402 AccDes= 0.00D+00 IRadAn=         0 IDoV= 1
 ScaDFX=  1.000000  1.000000  1.000000  1.000000
 FoFCou: FMM=F IPFlag=           0 FMFlag=      100000 FMFlg1=           0
         NFxFlg=           0 DoJE=T BraDBF=F KetDBF=T FulRan=T
         Omega=  0.000000  0.000000  1.000000  0.000000  0.000000 ICntrl=     500 IOpCl=  0
         NMat0=    1 NMatS0=    1 NMatT0=    0 NMatD0=    1 NMtDS0=    0 NMtDT0=    0
         I1Cent=           4 NGrid=           0.
 Symmetry not used in FoFCou.
 Requested convergence on RMS density matrix=1.00D-08 within 128 cycles.
 Requested convergence on MAX density matrix=1.00D-06.
 Requested convergence on             energy=1.00D-06.
 No special actions if energy rises.
 Keep R1 ints in memory in canonical form, NReq=1030816.
 SCF Done:  E(RB3LYP) =  -82.1979302332     A.U. after    8 cycles
             Convg  =    0.5946D-08             -V/T =  2.0775

 **********************************************************************

            Population analysis using the SCF density.

 **********************************************************************

 Alpha  occ. eigenvalues --  -19.17600  -1.10947  -0.59060  -0.43305  -0.35370
 Alpha virt. eigenvalues --   -0.03709   0.03000   0.11020   0.12747   0.15644
 Alpha virt. eigenvalues --    0.20468   0.21561   0.32132   0.89705   1.05293
 Alpha virt. eigenvalues --    1.08403   1.12552   1.22397   1.34352   1.50742
 Alpha virt. eigenvalues --    1.51079   1.61611   2.24054   2.34496   2.57701
 Alpha virt. eigenvalues --    2.77403   2.90237   3.19761   3.39785   3.86790
 Alpha virt. eigenvalues --    4.46416
          Condensed to atoms (all electrons):
              1          2          3
     1  H    0.412909  -0.028966   0.299855
     2  H   -0.028966   0.363997   0.302075
     3  O    0.299855   0.302075   8.077165
 Mulliken atomic charges:
              1
     1  O    0.000000
     2  H    0.000000
     3  H    0.316201
     4  H    0.362894
     5  O   -0.679095
     6  H    0.000000
     7  H    0.000000
     8  O    0.000000
     9  H    0.000000
    10  H    0.000000
    11  O    0.000000
    12  H    0.000000
    13  H    0.000000
    14  O    0.000000
    15  H    0.000000
    16  H    0.000000
    17  O    0.000000
    18  H    0.000000
    19  H    0.000000
    20  O    0.000000
    21  H    0.000000
    22  H    0.000000
    23  O    0.000000
    24  H    0.000000
    25  H    0.000000
    26  O    0.000000
 Sum of Mulliken atomic charges =   0.00000
 Mulliken charges with hydrogens summed into heavy atoms:
              1
     1  O    0.000000
     5  O    0.000000
     8  O    0.000000
    11  O    0.000000
    14  O    0.000000
    17  O    0.000000
    20  O    0.000000
    23  O    0.000000
    26  O    0.000000
 Sum of Mulliken charges with hydrogens summed into heavy atoms =   0.00000
          Condensed to fragments (all electrons):
     1       0.000000
     2       0.000000
[...]
 Alpha virt. eigenvalues --    0.17441   0.17863   0.18560   0.18782   0.20363
 Alpha virt. eigenvalues --    0.20516   0.22026   0.23456   0.23861   0.23953
 Alpha virt. eigenvalues --    0.25413   0.26481   0.26839   0.27215   0.27887
 Alpha virt. eigenvalues --    0.28402   0.29025   0.29370   0.29674   0.29910
 Alpha virt. eigenvalues --    0.30744   0.31163   0.31937   0.32092   0.32452
 Alpha virt. eigenvalues --    0.32716   0.33558   0.33771   0.34409   0.34902
 Alpha virt. eigenvalues --    0.36154   0.36361   0.37070   0.37337   0.37710
 Alpha virt. eigenvalues --    0.37901   0.38900   0.39079   0.39419   0.40700
 Alpha virt. eigenvalues --    0.40740   0.41386   0.41857   0.42269   0.43000
 Alpha virt. eigenvalues --    0.43711   0.44193   0.45528   0.45857   0.47385
 Alpha virt. eigenvalues --    0.48539   0.49848   0.50918   0.51993   0.53393
 Alpha virt. eigenvalues --    0.53708   0.55246   0.56804   0.60949   0.66358
 Alpha virt. eigenvalues --    1.01459   1.07210   1.08015   1.08857   1.09378
 Alpha virt. eigenvalues --    1.11129   1.11599   1.14240   1.14955   1.19218
 Alpha virt. eigenvalues --    1.20319   1.21756   1.23380   1.24182   1.24906
 Alpha virt. eigenvalues --    1.25304   1.26096   1.26537   1.26860   1.27614
 Alpha virt. eigenvalues --    1.28074   1.28996   1.29890   1.30363   1.31274
 Alpha virt. eigenvalues --    1.32001   1.32449   1.33299   1.34004   1.34404
 Alpha virt. eigenvalues --    1.35109   1.35943   1.36650   1.37163   1.37953
 Alpha virt. eigenvalues --    1.39014   1.39656   1.40183   1.41254   1.41750
 Alpha virt. eigenvalues --    1.43856   1.45340   1.48544   1.49530   1.52328
 Alpha virt. eigenvalues --    1.55658   1.56747   1.58923   1.59282   1.60948
 Alpha virt. eigenvalues --    1.61655   1.62754   1.64192   1.64289   1.65406
 Alpha virt. eigenvalues --    1.66381   1.67363   1.68004   1.68796   1.69469
 Alpha virt. eigenvalues --    1.70402   1.71419   1.73105   1.73595   1.74282
 Alpha virt. eigenvalues --    1.75050   1.76598   1.76862   1.78963   1.79860
 Alpha virt. eigenvalues --    1.80701   1.81719   1.83457   1.84265   1.85568
 Alpha virt. eigenvalues --    1.88296   1.92926   1.94661   1.97139   1.99493
 Alpha virt. eigenvalues --    2.03439   2.25871   2.28777   2.31903   2.34638
 Alpha virt. eigenvalues --    2.35067   2.36360   2.36951   2.37366   2.37688
 Alpha virt. eigenvalues --    2.38899   2.40124   2.41382   2.43742   2.46245
 Alpha virt. eigenvalues --    2.51347   2.56488   2.58121   2.60330   2.61361
 Alpha virt. eigenvalues --    2.62135   2.63482   2.65276   2.66373   2.67812
 Alpha virt. eigenvalues --    2.68057   2.69757   2.70913   2.71461   2.72123
 Alpha virt. eigenvalues --    2.73419   2.73823   2.75463   2.75771   2.77972
 Alpha virt. eigenvalues --    2.78635   2.80242   2.80470   2.82592   2.84791
 Alpha virt. eigenvalues --    2.85676   2.86182   2.92070   3.01984   3.05073
 Alpha virt. eigenvalues --    3.07934   3.09072   3.10521   3.11173   3.12591
 Alpha virt. eigenvalues --    3.18777   3.20590   3.44646   3.49932   3.50068
 Alpha virt. eigenvalues --    3.54318   3.56295   3.57413   3.58501   3.62345
 Alpha virt. eigenvalues --    3.66299   3.71765   3.74828   3.75935   3.78148
 Alpha virt. eigenvalues --    3.80190   3.83233   3.83849   3.90476   4.19170
 Alpha virt. eigenvalues --    4.26453   4.30501   4.33418   4.36054   4.39487
 Alpha virt. eigenvalues --    4.43964   4.46099   4.59986
          Condensed to atoms (all electrons):
              1          2          3          4          5          6
     1  O    8.925710   0.234593  -0.004648   0.000153  -0.017486   0.085371
     2  H    0.234593   0.429163   0.012019  -0.015156   0.031033  -0.023250
     3  H   -0.004648   0.012019   0.452888  -0.037782   0.226941  -0.007623
     4  H    0.000153  -0.015156  -0.037782   0.379261   0.191716   0.010011
     5  O   -0.017486   0.031033   0.226941   0.191716   8.533850  -0.004537
     6  H    0.085371  -0.023250  -0.007623   0.010011  -0.004537   0.365588
     7  H    0.003520   0.003606   0.000640  -0.000588  -0.000313  -0.018609
     8  O   -0.051992  -0.008285   0.001482  -0.001282  -0.003901   0.185174
     9  H   -0.001356  -0.001594  -0.006311  -0.000025   0.002273  -0.000917
    10  H    0.000437  -0.000189  -0.004874   0.001674   0.004271   0.002090
    11  O   -0.003473   0.007519   0.039229  -0.002967  -0.008575  -0.000050
    12  H   -0.000947  -0.005688   0.001143   0.001733  -0.004858   0.002650
    13  H    0.001033   0.000826   0.002872  -0.002383   0.000008  -0.000353
    14  O   -0.001838   0.006492   0.009803  -0.005110   0.001183  -0.001590
    15  H   -0.001071  -0.004340  -0.001391  -0.026486   0.027028  -0.009635
    16  H   -0.000368  -0.000162   0.002239   0.002013  -0.000505   0.002161
    17  O   -0.001308  -0.005585  -0.006713   0.003065  -0.032301   0.000987
    18  H    0.100735   0.009634  -0.004327  -0.000778   0.001325  -0.009386
    19  H    0.001881   0.003912   0.002437  -0.000512   0.000491  -0.003158
    20  O   -0.087378  -0.008541   0.000783  -0.000291   0.004308   0.002869
    21  H   -0.000576  -0.001973   0.000201  -0.004545   0.003772   0.000097
    22  H    0.000192   0.000602  -0.000198  -0.012746   0.002587  -0.000225
    23  O    0.000148  -0.005610  -0.022906   0.093096  -0.067673   0.001314
    24  H    0.072214  -0.015267   0.000088  -0.002412  -0.003342  -0.002913
    25  H    0.009621   0.006279   0.000101   0.000522   0.000141  -0.000619
    26  O   -0.109382  -0.013281  -0.002651   0.001262  -0.000610   0.007334
              7          8          9         10         11         12
     1  O    0.003520  -0.051992  -0.001356   0.000437  -0.003473  -0.000947
     2  H    0.003606  -0.008285  -0.001594  -0.000189   0.007519  -0.005688
     3  H    0.000640   0.001482  -0.006311  -0.004874   0.039229   0.001143
     4  H   -0.000588  -0.001282  -0.000025   0.001674  -0.002967   0.001733
     5  O   -0.000313  -0.003901   0.002273   0.004271  -0.008575  -0.004858
     6  H   -0.018609   0.185174  -0.000917   0.002090  -0.000050   0.002650
     7  H    0.387436   0.243320   0.000153  -0.000432  -0.000294  -0.000244
     8  O    0.243320   8.508413  -0.001333  -0.000271  -0.001835   0.000024
     9  H    0.000153  -0.001333   0.374212  -0.034363   0.267520  -0.002715
    10  H   -0.000432  -0.000271  -0.034363   0.388386   0.257019   0.002532
    11  O   -0.000294  -0.001835   0.267520   0.257019   8.211461  -0.006870
    12  H   -0.000244   0.000024  -0.002715   0.002532  -0.006870   0.367660
    13  H    0.000027   0.000016  -0.000143  -0.000519   0.002229  -0.024135
    14  O    0.000094   0.000028   0.001921  -0.001241  -0.005206   0.260103
    15  H    0.002022   0.009117   0.002376  -0.003493  -0.003144  -0.000727
    16  H   -0.000138  -0.003185  -0.001068  -0.000607   0.000581   0.000082
    17  O    0.001448  -0.015181   0.002097   0.016373  -0.003227  -0.000018
    18  H    0.001848  -0.005683   0.004034  -0.000399  -0.004587  -0.007950
    19  H    0.000118   0.001641  -0.001927  -0.000526  -0.000692   0.000394
    20  O   -0.000531  -0.000405   0.014844   0.001867  -0.027985   0.008333
    21  H    0.000030   0.000042   0.000061   0.000018  -0.000306  -0.000081
    22  H   -0.000001  -0.000014  -0.000007  -0.000089   0.000277   0.000031
    23  O   -0.000133  -0.000222  -0.000276   0.001009   0.000691   0.001632
    24  H   -0.000658   0.006385  -0.000015  -0.000213  -0.001427   0.000755
    25  H    0.000033  -0.000227  -0.000023   0.000005   0.000147  -0.000216
    26  O   -0.000010  -0.001903  -0.000372   0.000122   0.000044   0.002593
             13         14         15         16         17         18
     1  O    0.001033  -0.001838  -0.001071  -0.000368  -0.001308   0.100735
     2  H    0.000826   0.006492  -0.004340  -0.000162  -0.005585   0.009634
     3  H    0.002872   0.009803  -0.001391   0.002239  -0.006713  -0.004327
     4  H   -0.002383  -0.005110  -0.026486   0.002013   0.003065  -0.000778
     5  O    0.000008   0.001183   0.027028  -0.000505  -0.032301   0.001325
     6  H   -0.000353  -0.001590  -0.009635   0.002161   0.000987  -0.009386
     7  H    0.000027   0.000094   0.002022  -0.000138   0.001448   0.001848
     8  O    0.000016   0.000028   0.009117  -0.003185  -0.015181  -0.005683
     9  H   -0.000143   0.001921   0.002376  -0.001068   0.002097   0.004034
    10  H   -0.000519  -0.001241  -0.003493  -0.000607   0.016373  -0.000399
    11  O    0.002229  -0.005206  -0.003144   0.000581  -0.003227  -0.004587
    12  H   -0.024135   0.260103  -0.000727   0.000082  -0.000018  -0.007950
    13  H    0.383020   0.278201   0.000298  -0.000022   0.000005   0.000673
    14  O    0.278201   8.212898   0.000667  -0.000038   0.000019   0.000248
    15  H    0.000298   0.000667   0.355407  -0.012764   0.220533   0.000924
    16  H   -0.000022  -0.000038  -0.012764   0.312141   0.257474  -0.000766
    17  O    0.000005   0.000019   0.220533   0.257474   8.448701  -0.001101
    18  H    0.000673   0.000248   0.000924  -0.000766  -0.001101   0.353439
    19  H   -0.000151   0.000727  -0.000091   0.000305   0.000096  -0.010514
    20  O   -0.000454   0.001345   0.000929  -0.000120  -0.000770   0.134310
    21  H    0.000008   0.000516   0.000890  -0.000073   0.000170   0.000197
    22  H    0.000034  -0.000093   0.001836  -0.000127  -0.000189   0.000045
    23  O   -0.000394  -0.001011  -0.012855   0.001053   0.000463   0.000201
    24  H    0.000468  -0.000261   0.002803  -0.000188   0.000553  -0.003584
    25  H   -0.000179  -0.000124  -0.000301   0.000030   0.000002  -0.000764
    26  O   -0.000515  -0.000705  -0.000233  -0.000008  -0.000037  -0.000134
             19         20         21         22         23         24
     1  O    0.001881  -0.087378  -0.000576   0.000192   0.000148   0.072214
     2  H    0.003912  -0.008541  -0.001973   0.000602  -0.005610  -0.015267
     3  H    0.002437   0.000783   0.000201  -0.000198  -0.022906   0.000088
     4  H   -0.000512  -0.000291  -0.004545  -0.012746   0.093096  -0.002412
     5  O    0.000491   0.004308   0.003772   0.002587  -0.067673  -0.003342
     6  H   -0.003158   0.002869   0.000097  -0.000225   0.001314  -0.002913
     7  H    0.000118  -0.000531   0.000030  -0.000001  -0.000133  -0.000658
     8  O    0.001641  -0.000405   0.000042  -0.000014  -0.000222   0.006385
     9  H   -0.001927   0.014844   0.000061  -0.000007  -0.000276  -0.000015
    10  H   -0.000526   0.001867   0.000018  -0.000089   0.001009  -0.000213
    11  O   -0.000692  -0.027985  -0.000306   0.000277   0.000691  -0.001427
    12  H    0.000394   0.008333  -0.000081   0.000031   0.001632   0.000755
    13  H   -0.000151  -0.000454   0.000008   0.000034  -0.000394   0.000468
    14  O    0.000727   0.001345   0.000516  -0.000093  -0.001011  -0.000261
    15  H   -0.000091   0.000929   0.000890   0.001836  -0.012855   0.002803
    16  H    0.000305  -0.000120  -0.000073  -0.000127   0.001053  -0.000188
    17  O    0.000096  -0.000770   0.000170  -0.000189   0.000463   0.000553
    18  H   -0.010514   0.134310   0.000197   0.000045   0.000201  -0.003584
    19  H    0.310198   0.246295  -0.000015   0.000010  -0.000034  -0.000243
    20  O    0.246295   8.678627  -0.000074   0.000031   0.000023   0.002855
    21  H   -0.000015  -0.000074   0.243398  -0.018530   0.289963   0.000618
    22  H    0.000010   0.000031  -0.018530   0.320772   0.277494   0.000163
    23  O   -0.000034   0.000023   0.289963   0.277494   8.286605  -0.000156
    24  H   -0.000243   0.002855   0.000618   0.000163  -0.000156   0.296961
    25  H    0.000114   0.000442   0.000044  -0.000062   0.000020  -0.024411
    26  O   -0.000048  -0.002198  -0.001722   0.000528   0.001055   0.210595
             25         26
     1  O    0.009621  -0.109382
     2  H    0.006279  -0.013281
     3  H    0.000101  -0.002651
     4  H    0.000522   0.001262
     5  O    0.000141  -0.000610
     6  H   -0.000619   0.007334
     7  H    0.000033  -0.000010
     8  O   -0.000227  -0.001903
     9  H   -0.000023  -0.000372
    10  H    0.000005   0.000122
    11  O    0.000147   0.000044
    12  H   -0.000216   0.002593
    13  H   -0.000179  -0.000515
    14  O   -0.000124  -0.000705
    15  H   -0.000301  -0.000233
    16  H    0.000030  -0.000008
    17  O    0.000002  -0.000037
    18  H   -0.000764  -0.000134
    19  H    0.000114  -0.000048
    20  O    0.000442  -0.002198
    21  H    0.000044  -0.001722
    22  H   -0.000062   0.000528
    23  O    0.000020   0.001055
    24  H   -0.024411   0.210595
    25  H    0.395193   0.261337
    26  O    0.261337   8.543522
 Mulliken atomic charges:
              1
     1  O   -1.153785
     2  H    0.363243
     3  H    0.346555
     4  H    0.428555
     5  O   -0.886828
     6  H    0.417218
     7  H    0.377658
     8  O   -0.859923
     9  H    0.382953
    10  H    0.371412
    11  O   -0.716078
    12  H    0.404785
    13  H    0.359528
    14  O   -0.757028
    15  H    0.451701
    16  H    0.442060
    17  O   -0.885554
    18  H    0.442360
    19  H    0.449290
    20  O   -0.969114
    21  H    0.487871
    22  H    0.427677
    23  O   -0.843496
    24  H    0.460630
    25  H    0.352894
    26  O   -0.894583
 Sum of Mulliken atomic charges =  -1.00000
 Mulliken charges with hydrogens summed into heavy atoms:
              1
     1  O   -0.790543
     5  O   -0.111717
     8  O   -0.065047
    11  O    0.038287
    14  O    0.007284
    17  O    0.008207
    20  O   -0.077464
    23  O    0.072052
    26  O   -0.081059
 Sum of Mulliken charges with hydrogens summed into heavy atoms =  -1.00000
          Condensed to fragments (all electrons):
     1      -0.111717
     2      -0.888283
 Electronic spatial extent (au):  <R**2>=           4265.1770
 Charge=             -1.0000 electrons
 Dipole moment (field-independent basis, Debye):
    X=              9.4128    Y=              4.0336    Z=             -2.6621  Tot=             10.5810
 Quadrupole moment (field-independent basis, Debye-Ang):
   XX=            -97.6718   YY=            -77.0194   ZZ=            -76.9625
   XY=            -20.1891   XZ=             32.1579   YZ=             -6.2569
 Traceless Quadrupole moment (field-independent basis, Debye-Ang):
   XX=            -13.7872   YY=              6.8651   ZZ=              6.9221
   XY=            -20.1891   XZ=             32.1579   YZ=             -6.2569
 Octapole moment (field-independent basis, Debye-Ang**2):
  XXX=            517.7931  YYY=            149.3926  ZZZ=            -60.5237  XYY=            202.7637
  XXY=            100.5424  XXZ=           -149.3638  XZZ=            174.9213  YZZ=             32.6417
  YYZ=            -20.8538  XYZ=             15.7271
 Hexadecapole moment (field-independent basis, Debye-Ang**3):
 XXXX=          -3042.0830 YYYY=          -1291.7682 ZZZZ=          -1246.7453 XXXY=           -463.0048
 XXXZ=            727.6160 YYYX=           -421.2316 YYYZ=             56.4820 ZZZX=            313.6422
 ZZZY=            107.6355 XXYY=           -898.2360 XXZZ=           -787.0233 YYZZ=           -467.7261
 XXYZ=            -61.7380 YYXZ=             81.6325 ZZXY=           -135.0181
 N-N= 5.528479603717D+02 E-N=-2.750277896025D+03  KE= 6.807167252241D+02
 Counterpoise: doing DCBS calculation for fragment   1 NewBq=T
 Basis read from rwf:  (6D, 7F)
 Integral buffers will be    131072 words long.
 Raffenetti 2 integral format.
 Two-electron integral symmetry is turned off.
   273 basis functions,   424 primitive gaussians,   273 cartesian basis functions
     5 alpha electrons        5 beta electrons
       nuclear repulsion energy         8.5380386462 Hartrees.
 NAtoms=   26 NActive=   26 NUniq=   26 SFac= 7.50D-01 NAtFMM=   80 NAOKFM=F Big=F
 FoFCou: FMM=F IPFlag=           0 FMFlag=      100000 FMFlg1=           0
         NFxFlg=           0 DoJE=F BraDBF=T KetDBF=T FulRan=T
         Omega=  0.000000  0.000000  1.000000  0.000000  0.000000 ICntrl=    1100 IOpCl=  0
         NMat0=    1 NMatS0=    1 NMatT0=    0 NMatD0=    1 NMtDS0=    0 NMtDT0=    0
         I1Cent=    10001006 NGrid=          83.
 Symmetry not used in FoFCou.
 Self energy of the charges =        -5.8402918693 a.u.
 MM   energy of the charges =         0.0000000000 a.u.
 Nuclei-charges interaction =         0.2264135645 a.u.
 Nuclear repulsion after external point charges =        2.9241603413 Hartrees.
 One-electron integrals computed using PRISM.
 NBasis=   273 RedAO= T  NBF=   273
 NBsUse=   273 1.00D-06 NBFU=   273
 Harris functional with IExCor=  402 diagonalized for initial guess.
 ExpMin= 3.60D-02 ExpMax= 5.48D+03 ExpMxC= 8.25D+02 IAcc=3 IRadAn=         0 AccDes= 0.00D+00
 HarFok:  IExCor=  402 AccDes= 0.00D+00 IRadAn=         0 IDoV= 1
 ScaDFX=  1.000000  1.000000  1.000000  1.000000
 FoFCou: FMM=F IPFlag=           0 FMFlag=      100000 FMFlg1=           0
         NFxFlg=           0 DoJE=T BraDBF=F KetDBF=T FulRan=T
         Omega=  0.000000  0.000000  1.000000  0.000000  0.000000 ICntrl=     500 IOpCl=  0
         NMat0=    1 NMatS0=    1 NMatT0=    0 NMatD0=    1 NMtDS0=    0 NMtDT0=    0
         I1Cent=           4 NGrid=           0.
 Symmetry not used in FoFCou.
 Requested convergence on RMS density matrix=1.00D-08 within 128 cycles.
 Requested convergence on MAX density matrix=1.00D-06.
 Requested convergence on             energy=1.00D-06.
 No special actions if energy rises.
 SCF Done:  E(RB3LYP) =  -82.2733002312     A.U. after    8 cycles
             Convg  =    0.1977D-08             -V/T =  2.0893

 **********************************************************************

            Population analysis using the SCF density.

 **********************************************************************

 Alpha  occ. eigenvalues --  -19.20382  -1.02080  -0.52988  -0.42362  -0.34131
 Alpha virt. eigenvalues --   -0.05818  -0.00116   0.00166   0.01710   0.03413
 Alpha virt. eigenvalues --    0.04477   0.05056   0.05350   0.06021   0.06679
 Alpha virt. eigenvalues --    0.07695   0.08530   0.08912   0.09596   0.10679
 Alpha virt. eigenvalues --    0.11094   0.12013   0.12404   0.13342   0.14302
 Alpha virt. eigenvalues --    0.14531   0.15117   0.15843   0.16516   0.17805
 Alpha virt. eigenvalues --    0.18189   0.19431   0.19854   0.20772   0.21540
 Alpha virt. eigenvalues --    0.21889   0.22144   0.22585   0.22998   0.23768
 Alpha virt. eigenvalues --    0.24612   0.24802   0.25771   0.26246   0.26807
 Alpha virt. eigenvalues --    0.27640   0.28510   0.29231   0.29839   0.31018
 Alpha virt. eigenvalues --    0.31791   0.32135   0.32931   0.33851   0.34635
 Alpha virt. eigenvalues --    0.35104   0.37378   0.38214   0.40181   0.42649
 Alpha virt. eigenvalues --    0.47808   0.48980   0.49844   0.51307   0.52909
 Alpha virt. eigenvalues --    0.53531   0.55441   0.55791   0.56380   0.57907
 Alpha virt. eigenvalues --    0.58682   0.59857   0.60459   0.60682   0.63766
 Alpha virt. eigenvalues --    0.68851   0.69505   0.72896   0.74332   0.74618
 Alpha virt. eigenvalues --    0.77017   0.77248   0.82033   0.82827   0.84976
 Alpha virt. eigenvalues --    0.86049   0.87177   0.88358   0.88958   0.89598
 Alpha virt. eigenvalues --    0.90595   0.91026   0.91334   0.92408   0.94185
 Alpha virt. eigenvalues --    0.94789   0.95668   0.97262   0.98962   0.99754
 Alpha virt. eigenvalues --    1.01779   1.02814   1.05540   1.06812   1.10982
 Alpha virt. eigenvalues --    1.11571   1.16999   1.22903   1.25242   1.27935
 Alpha virt. eigenvalues --    1.29693   1.36889   1.54357   1.56260   1.64222
 Alpha virt. eigenvalues --    1.79361   2.13076   2.16789   2.19872   2.22946
 Alpha virt. eigenvalues --    2.24599   2.27193   2.27438   2.29320   2.29747
 Alpha virt. eigenvalues --    2.30933   2.31571   2.32075   2.33444   2.34767
 Alpha virt. eigenvalues --    2.35085   2.36305   2.37219   2.39009   2.39138
 Alpha virt. eigenvalues --    2